 Entering Gaussian System, Link 0=/opt/g16avx/g16
 Input=example.gjf
 Output=example.log
 Initial command:
 /opt/g16avx/l1.exe "/home/scratch/Gau-7856.inp" -scrdir="/home/scratch/"
 Entering Link 1 = /opt/g16avx/l1.exe PID=      7857.
  
 Copyright (c) 1988,1990,1992,1993,1995,1998,2003,2009,2016,
            Gaussian, Inc.  All Rights Reserved.
  
 This is part of the Gaussian(R) 16 program.  It is based on
 the Gaussian(R) 09 system (copyright 2009, Gaussian, Inc.),
 the Gaussian(R) 03 system (copyright 2003, Gaussian, Inc.),
 the Gaussian(R) 98 system (copyright 1998, Gaussian, Inc.),
 the Gaussian(R) 94 system (copyright 1995, Gaussian, Inc.),
 the Gaussian 92(TM) system (copyright 1992, Gaussian, Inc.),
 the Gaussian 90(TM) system (copyright 1990, Gaussian, Inc.),
 the Gaussian 88(TM) system (copyright 1988, Gaussian, Inc.),
 the Gaussian 86(TM) system (copyright 1986, Carnegie Mellon
 University), and the Gaussian 82(TM) system (copyright 1983,
 Carnegie Mellon University). Gaussian is a federally registered
 trademark of Gaussian, Inc.
  
 This software contains proprietary and confidential information,
 including trade secrets, belonging to Gaussian, Inc.
  
 This software is provided under written license and may be
 used, copied, transmitted, or stored only in accord with that
 written license.
  
 The following legend is applicable only to US Government
 contracts under FAR:
  
                    RESTRICTED RIGHTS LEGEND
  
 Use, reproduction and disclosure by the US Government is
 subject to restrictions as set forth in subparagraphs (a)
 and (c) of the Commercial Computer Software - Restricted
 Rights clause in FAR 52.227-19.
  
 Gaussian, Inc.
 340 Quinnipiac St., Bldg. 40, Wallingford CT 06492
  
  
 ---------------------------------------------------------------
 Warning -- This program may not be used in any manner that
 competes with the business of Gaussian, Inc. or will provide
 assistance to any competitor of Gaussian, Inc.  The licensee
 of this program is prohibited from giving any competitor of
 Gaussian, Inc. access to this program.  By using this program,
 the user acknowledges that Gaussian, Inc. is engaged in the
 business of creating and licensing software in the field of
 computational chemistry and represents and warrants to the
 licensee that it is not a competitor of Gaussian, Inc. and that
 it will not use this program in any manner prohibited above.
 ---------------------------------------------------------------
  

 Cite this work as:
 Gaussian 16, Revision A.03,
 M. J. Frisch, G. W. Trucks, H. B. Schlegel, G. E. Scuseria, 
 M. A. Robb, J. R. Cheeseman, G. Scalmani, V. Barone, 
 G. A. Petersson, H. Nakatsuji, X. Li, M. Caricato, A. V. Marenich, 
 J. Bloino, B. G. Janesko, R. Gomperts, B. Mennucci, H. P. Hratchian, 
 J. V. Ortiz, A. F. Izmaylov, J. L. Sonnenberg, D. Williams-Young, 
 F. Ding, F. Lipparini, F. Egidi, J. Goings, B. Peng, A. Petrone, 
 T. Henderson, D. Ranasinghe, V. G. Zakrzewski, J. Gao, N. Rega, 
 G. Zheng, W. Liang, M. Hada, M. Ehara, K. Toyota, R. Fukuda, 
 J. Hasegawa, M. Ishida, T. Nakajima, Y. Honda, O. Kitao, H. Nakai, 
 T. Vreven, K. Throssell, J. A. Montgomery, Jr., J. E. Peralta, 
 F. Ogliaro, M. J. Bearpark, J. J. Heyd, E. N. Brothers, K. N. Kudin, 
 V. N. Staroverov, T. A. Keith, R. Kobayashi, J. Normand, 
 K. Raghavachari, A. P. Rendell, J. C. Burant, S. S. Iyengar, 
 J. Tomasi, M. Cossi, J. M. Millam, M. Klene, C. Adamo, R. Cammi, 
 J. W. Ochterski, R. L. Martin, K. Morokuma, O. Farkas, 
 J. B. Foresman, and D. J. Fox, Gaussian, Inc., Wallingford CT, 2016.
 
 ******************************************
 Gaussian 16:  ES64L-G16RevA.03 25-Dec-2016
                23-Sep-2021 
 ******************************************
 %nprocshared=40
 Will use up to   40 processors via shared memory.
 ----------------------------------------------------------------------
 # rpbe1pbe 6-311++g(d,p) scrf=(smd,solvent=methanol) empiricaldispersi
 on=gd3bj pop=nboread
 ----------------------------------------------------------------------
 1/38=1,172=1/1;
 2/12=2,17=6,18=5,40=1/2;
 3/5=4,6=6,7=1111,11=2,25=1,30=1,70=32201,72=3,74=-13,116=1,124=41/1,2,3;
 4//1;
 5/5=2,38=5,53=3/2;
 6/7=2,8=2,9=2,10=2,28=1,40=2/1,7;
 99/5=1,9=1/99;
 ------------
 Conformation
 ------------
 Symbolic Z-matrix:
 Charge =  0 Multiplicity = 1
 C                    -3.04581  -0.17362  -0.52628 
 C                    -1.63688  -0.12382   0.0035 
 N                    -0.89258  -1.29546  -0.39129 
 H                    -1.13337  -1.60198  -1.32878 
 C                     0.54347  -1.13576  -0.2805 
 C                     1.2233   -2.44758   0.02967 
 H                     2.30977  -2.35308   0.01422 
 H                     0.90311  -2.79034   1.01646 
 H                     0.92186  -3.19935  -0.70555 
 O                     1.10902  -0.69973  -1.53753 
 O                     0.99505   0.74887  -1.57455 
 C                     0.36269   1.14271  -0.36062 
 C                     0.75623   2.57425  -0.10769 
 H                     0.33856   2.89618   0.84917 
 H                     1.83977   2.6918   -0.08739 
 H                     0.34288   3.20764  -0.8969 
 O                    -1.03665   1.08715  -0.53747 
 C                     0.81676   0.06418   0.64321 
 C                    -0.06308   0.03757   1.89078 
 C                    -1.54867   0.00346   1.51589 
 H                    -2.06271  -0.84138   1.97984 
 H                    -2.06088   0.92019   1.81866 
 H                     0.1731    0.91613   2.49757 
 H                     0.21899  -0.83762   2.48329 
 C                     2.2836    0.19736   1.01068 
 H                     2.44851   1.12178   1.56993 
 H                     2.93189   0.2048    0.13145 
 H                     2.58397  -0.63382   1.65416 
 H                    -3.58828   0.72775  -0.23231 
 H                    -3.03987  -0.23966  -1.6184 
 H                    -3.56813  -1.04368  -0.12179 
 
                          Input orientation:                          
 ---------------------------------------------------------------------
 Center     Atomic      Atomic             Coordinates (Angstroms)
 Number     Number       Type             X           Y           Z
 ---------------------------------------------------------------------
      1          6           0       -3.045810   -0.173616   -0.526277
      2          6           0       -1.636884   -0.123817    0.003495
      3          7           0       -0.892582   -1.295456   -0.391291
      4          1           0       -1.133368   -1.601983   -1.328778
      5          6           0        0.543470   -1.135756   -0.280498
      6          6           0        1.223295   -2.447578    0.029671
      7          1           0        2.309769   -2.353082    0.014224
      8          1           0        0.903105   -2.790341    1.016457
      9          1           0        0.921862   -3.199352   -0.705545
     10          8           0        1.109021   -0.699732   -1.537525
     11          8           0        0.995045    0.748870   -1.574550
     12          6           0        0.362693    1.142706   -0.360624
     13          6           0        0.756225    2.574245   -0.107690
     14          1           0        0.338560    2.896179    0.849165
     15          1           0        1.839770    2.691804   -0.087394
     16          1           0        0.342882    3.207638   -0.896897
     17          8           0       -1.036649    1.087148   -0.537470
     18          6           0        0.816758    0.064183    0.643206
     19          6           0       -0.063078    0.037572    1.890775
     20          6           0       -1.548669    0.003456    1.515893
     21          1           0       -2.062708   -0.841381    1.979838
     22          1           0       -2.060885    0.920191    1.818662
     23          1           0        0.173097    0.916134    2.497568
     24          1           0        0.218994   -0.837616    2.483286
     25          6           0        2.283595    0.197360    1.010677
     26          1           0        2.448511    1.121781    1.569933
     27          1           0        2.931889    0.204803    0.131447
     28          1           0        2.583971   -0.633820    1.654156
     29          1           0       -3.588276    0.727754   -0.232308
     30          1           0       -3.039873   -0.239658   -1.618395
     31          1           0       -3.568125   -1.043680   -0.121785
 ---------------------------------------------------------------------
                    Distance matrix (angstroms):
                    1          2          3          4          5
     1  C    0.000000
     2  C    1.506058   0.000000
     3  N    2.431694   1.443114   0.000000
     4  H    2.518268   2.052670   1.015292   0.000000
     5  C    3.724118   2.420458   1.449146   2.031759   0.000000
     6  C    4.868803   3.685264   2.445717   2.848557   1.509716
     7  H    5.807275   4.532748   3.396773   3.771339   2.165307
     8  H    4.982089   3.819422   2.727806   3.325589   2.132858
     9  H    4.992959   4.063106   2.648732   2.676561   2.140625
    10  O    4.308369   3.201002   2.382258   2.426096   1.445711
    11  O    4.275321   3.190432   3.023658   3.180732   2.330302
    12  C    3.657600   2.394780   2.742497   3.272436   2.287026
    13  C    4.709716   3.608167   4.215872   4.743680   3.720112
    14  H    4.771734   3.706469   4.541392   5.209939   4.192210
    15  H    5.680858   4.474718   4.843175   5.368165   4.045726
    16  H    4.801403   3.978539   4.696793   5.049583   4.391498
    17  O    2.371999   1.455803   2.391427   2.804808   2.739364
    18  C    4.042731   2.542623   2.416743   3.235401   1.538756
    19  C    3.844923   2.462669   2.769994   3.768180   2.541461
    20  C    2.538355   1.520305   2.398953   3.292729   2.983600
    21  H    2.773628   2.145264   2.682840   3.519819   3.462360
    22  H    2.768615   2.136483   3.340347   4.138602   3.926329
    23  H    4.548907   3.252373   3.791083   4.763264   3.473482
    24  H    4.489689   3.178546   3.115832   4.116427   2.798692
    25  C    5.558993   4.060508   3.779168   4.515121   2.544085
    26  H    6.021604   4.549252   4.566436   5.352688   3.485649
    27  H    6.025669   4.582363   4.141330   4.682205   2.769719
    28  H    6.054792   4.560746   4.087546   4.863522   2.856304
    29  H    1.092316   2.142127   3.374229   3.557597   4.532805
    30  H    1.094129   2.147632   2.689117   2.361052   3.928525
    31  H    1.092446   2.142787   2.700843   2.774270   4.115687
                    6          7          8          9         10
     6  C    0.000000
     7  H    1.090685   0.000000
     8  H    1.092591   1.781676   0.000000
     9  H    1.093878   1.777787   1.770009   0.000000
    10  O    2.350346   2.565792   3.306943   2.641083   0.000000
    11  O    3.583700   3.724890   4.387230   4.043387   1.453551
    12  C    3.712560   4.018974   4.202054   4.391481   2.310125
    13  C    5.045367   5.167873   5.483071   5.806831   3.589961
    14  H    5.478144   5.668997   5.716923   6.317663   4.384116
    15  H    5.177547   5.067751   5.670074   5.994196   3.760238
    16  H    5.797855   5.968282   6.320643   6.435942   4.032978
    17  O    4.233590   4.830948   4.605676   4.715729   2.965965
    18  C    2.617373   2.909961   2.880118   3.532823   2.329071
    19  C    3.360719   3.855784   3.113685   4.264817   3.697387
    20  C    3.987506   4.764014   3.750458   4.614790   4.108668
    21  H    4.144977   5.026672   3.677308   4.656068   4.738330
    22  H    5.032713   5.750907   4.816307   5.677943   4.892489
    23  H    4.302091   4.628189   4.057654   5.268568   4.446229
    24  H    3.101745   3.572708   2.536283   4.029946   4.120447
    25  C    3.013686   2.738313   3.291222   4.041953   2.945799
    26  H    4.076013   3.809744   4.242560   5.116703   3.842973
    27  H    3.156703   2.635062   3.724258   4.040920   2.631824
    28  H    2.789285   2.391741   2.807589   3.861703   3.516625
    29  H    5.770839   6.658773   5.840283   5.998955   5.079951
    30  H    5.075986   5.979187   5.384747   5.028760   4.175108
    31  H    4.995155   6.023510   4.933388   5.014746   4.898807
                   11         12         13         14         15
    11  O    0.000000
    12  C    1.424287   0.000000
    13  C    2.353871   1.506037   0.000000
    14  H    3.303983   2.130455   1.092546   0.000000
    15  H    2.588472   2.157803   1.090093   1.781163   0.000000
    16  H    2.632503   2.133524   1.093109   1.773628   1.778216
    17  O    2.306024   1.411566   2.368663   2.662057   3.324346
    18  C    2.327880   1.541772   2.620672   2.879461   2.912855
    19  C    3.692431   2.543895   3.331641   3.068859   3.818237
    20  C    4.071481   2.910758   3.815431   3.517671   4.612945
    21  H    4.951002   3.911129   4.895984   4.584088   5.655632
    22  H    4.569677   3.266884   3.792471   3.256039   4.689005
    23  H    4.157610   2.873420   3.142728   2.581703   3.551455
    24  H    4.425520   3.468450   4.317704   4.077484   4.657480
    25  C    2.940735   2.542442   3.038616   3.330596   2.761339
    26  H    3.484164   2.842204   2.790681   2.849542   2.362683
    27  H    2.637764   2.778950   3.225671   3.805782   2.725030
    28  H    3.855005   3.485607   4.091019   4.260373   3.827089
    29  H    4.775865   3.974771   4.722261   4.614292   5.774268
    30  H    4.154476   3.882058   4.960911   5.228397   5.894773
    31  H    5.113344   4.504293   5.638225   5.632710   6.572697
                   16         17         18         19         20
    16  H    0.000000
    17  O    2.555146   0.000000
    18  C    3.532391   2.423958   0.000000
    19  C    4.240901   2.818834   1.526842   0.000000
    20  C    4.434671   2.377573   2.522006   1.532541   0.000000
    21  H    5.518788   3.332996   3.301205   2.186095   1.092351
    22  H    4.287747   2.574547   3.224171   2.185280   1.092903
    23  H    4.099050   3.271725   2.139808   1.093548   2.182005
    24  H    5.273051   3.795566   2.134586   1.093887   2.183548
    25  C    4.057953   3.769947   1.518019   2.511370   3.870283
    26  H    3.856128   4.072921   2.154055   2.754365   4.151026
    27  H    4.096031   4.120106   2.180700   3.477503   4.693893
    28  H    5.127100   4.568790   2.152271   2.741099   4.183772
    29  H    4.695264   2.594820   4.539953   4.172631   2.782231
    30  H    4.883384   2.634714   4.481156   4.610037   3.479448
    31  H    5.828420   3.334905   4.586913   4.183881   2.802978
                   21         22         23         24         25
    21  H    0.000000
    22  H    1.768931   0.000000
    23  H    2.890627   2.334867   0.000000
    24  H    2.336587   2.954566   1.754409   0.000000
    25  C    4.572593   4.477704   2.679866   2.739038   0.000000
    26  H    4.936914   4.520747   2.465828   3.105511   1.092940
    27  H    5.427435   5.318483   3.703438   3.738661   1.092422
    28  H    4.662701   4.900684   2.987644   2.514380   1.093230
    29  H    3.111773   2.564456   4.651412   4.931545   6.025380
    30  H    3.776798   3.757263   5.347914   5.272718   5.953345
    31  H    2.593072   3.145456   4.969771   4.601209   6.088126
                   26         27         28         29         30
    26  H    0.000000
    27  H    1.773061   0.000000
    28  H    1.762832   1.772845   0.000000
    29  H    6.312379   6.551210   6.596155   0.000000
    30  H    6.491634   6.238705   6.518633   1.777039   0.000000
    31  H    6.614457   6.623671   6.416404   1.774993   1.779141
                   31
    31  H    0.000000
 Stoichiometry    C10H17NO3
 Framework group  C1[X(C10H17NO3)]
 Deg. of freedom    87
 Full point group                 C1      NOp   1
 Largest Abelian subgroup         C1      NOp   1
 Largest concise Abelian subgroup C1      NOp   1
                         Standard orientation:                         
 ---------------------------------------------------------------------
 Center     Atomic      Atomic             Coordinates (Angstroms)
 Number     Number       Type             X           Y           Z
 ---------------------------------------------------------------------
      1          6           0       -3.045810   -0.173617   -0.526277
      2          6           0       -1.636884   -0.123817    0.003495
      3          7           0       -0.892582   -1.295456   -0.391291
      4          1           0       -1.133368   -1.601983   -1.328778
      5          6           0        0.543470   -1.135756   -0.280498
      6          6           0        1.223296   -2.447578    0.029671
      7          1           0        2.309770   -2.353081    0.014224
      8          1           0        0.903106   -2.790341    1.016457
      9          1           0        0.921863   -3.199352   -0.705545
     10          8           0        1.109021   -0.699732   -1.537525
     11          8           0        0.995045    0.748870   -1.574550
     12          6           0        0.362693    1.142706   -0.360624
     13          6           0        0.756224    2.574245   -0.107690
     14          1           0        0.338559    2.896179    0.849165
     15          1           0        1.839769    2.691805   -0.087394
     16          1           0        0.342881    3.207638   -0.896897
     17          8           0       -1.036649    1.087148   -0.537470
     18          6           0        0.816758    0.064183    0.643206
     19          6           0       -0.063078    0.037572    1.890775
     20          6           0       -1.548669    0.003456    1.515893
     21          1           0       -2.062708   -0.841382    1.979838
     22          1           0       -2.060885    0.920190    1.818662
     23          1           0        0.173097    0.916134    2.497568
     24          1           0        0.218994   -0.837616    2.483286
     25          6           0        2.283595    0.197361    1.010677
     26          1           0        2.448511    1.121782    1.569933
     27          1           0        2.931889    0.204804    0.131447
     28          1           0        2.583971   -0.633819    1.654156
     29          1           0       -3.588276    0.727753   -0.232308
     30          1           0       -3.039873   -0.239659   -1.618395
     31          1           0       -3.568125   -1.043681   -0.121785
 ---------------------------------------------------------------------
 Rotational constants (GHZ):           0.9880239           0.8099411           0.7056603
 Standard basis: 6-311++G(d,p) (5D, 7F)
 There are   441 symmetry adapted cartesian basis functions of A   symmetry.
 There are   427 symmetry adapted basis functions of A   symmetry.
   427 basis functions,   657 primitive gaussians,   441 cartesian basis functions
    54 alpha electrons       54 beta electrons
       nuclear repulsion energy      1095.1549646825 Hartrees.
 NAtoms=   31 NActive=   31 NUniq=   31 SFac= 1.00D+00 NAtFMM=   60 NAOKFM=F Big=F
 Integral buffers will be    131072 words long.
 Raffenetti 2 integral format.
 Two-electron integral symmetry is turned on.
 Nuclear repulsion after empirical dispersion term =     1095.1216203869 Hartrees.
 ------------------------------------------------------------------------------
 Polarizable Continuum Model (PCM)
 =================================
 Model                : PCM.
 Atomic radii         : SMD-Coulomb.
 Polarization charges : Total charges.
 Charge compensation  : None.
 Solution method      : On-the-fly selection.
 Cavity type          : VdW (van der Waals Surface) (Alpha=1.000).
 Cavity algorithm     : GePol (No added spheres)
                        Default sphere list used, NSphG=   31.
                        Lebedev-Laikov grids with approx.  5.0 points / Ang**2.
                        Smoothing algorithm: York/Karplus (Gamma=1.0000).
                        Polarization charges: spherical gaussians, with
                                              point-specific exponents (IZeta= 3).
                        Self-potential: point-specific (ISelfS= 7).
                        Self-field    : sphere-specific E.n sum rule (ISelfD= 2).
 Solvent              : Methanol, Eps=  32.613000 Eps(inf)=   1.765709
 ------------------------------------------------------------------------------
 ------------------------------------------------------------------------------
 Atomic radii for non-electrostatic terms: SMD-CDS.
 ------------------------------------------------------------------------------
 Nuclear repulsion after PCM non-electrostatic terms =     1095.1202917813 Hartrees.
 One-electron integrals computed using PRISM.
 PrsmSu:  requested number of processors reduced to:  26 ShMem   1 Linda.
 NBasis=   427 RedAO= T EigKep=  1.35D-06  NBF=   427
 NBsUse=   427 1.00D-06 EigRej= -1.00D+00 NBFU=   427
 ExpMin= 3.60D-02 ExpMax= 8.59D+03 ExpMxC= 1.30D+03 IAcc=3 IRadAn=         5 AccDes= 0.00D+00
 Harris functional with IExCor= 1009 and IRadAn=       5 diagonalized for initial guess.
 HarFok:  IExCor= 1009 AccDes= 0.00D+00 IRadAn=         5 IDoV= 1 UseB2=F ITyADJ=14
 ICtDFT=  3500011 ScaDFX=  1.000000  1.000000  1.000000  1.000000
 FoFCou: FMM=F IPFlag=           0 FMFlag=      100000 FMFlg1=           0
         NFxFlg=           0 DoJE=T BraDBF=F KetDBF=T FulRan=T
         wScrn=  0.000000 ICntrl=       500 IOpCl=  0 I1Cent=   200000004 NGrid=           0
         NMat0=    1 NMatS0=      1 NMatT0=    0 NMatD0=    1 NMtDS0=    0 NMtDT0=    0
 Petite list used in FoFCou.
 Requested convergence on RMS density matrix=1.00D-08 within 128 cycles.
 Requested convergence on MAX density matrix=1.00D-06.
 Requested convergence on             energy=1.00D-06.
 No special actions if energy rises.
 Inv3:  Mode=1 IEnd=    11070723.
 Iteration    1 A*A^-1 deviation from unit magnitude is 3.00D-15 for    375.
 Iteration    1 A*A^-1 deviation from orthogonality  is 2.13D-15 for   1855     30.
 Iteration    1 A^-1*A deviation from unit magnitude is 2.89D-15 for   1094.
 Iteration    1 A^-1*A deviation from orthogonality  is 1.56D-15 for   1536    362.
 Error on total polarization charges =  0.05796
 SCF Done:  E(RPBE1PBE) =  -671.132667847     A.U. after   14 cycles
            NFock= 14  Conv=0.24D-08     -V/T= 2.0040
 SMD-CDS (non-electrostatic) energy       (kcal/mol) =      -0.83
 (included in total energy above)

 **********************************************************************

            Population analysis using the SCF density.

 **********************************************************************

 Orbital symmetries:
       Occupied  (A) (A) (A) (A) (A) (A) (A) (A) (A) (A) (A) (A)
                 (A) (A) (A) (A) (A) (A) (A) (A) (A) (A) (A) (A)
                 (A) (A) (A) (A) (A) (A) (A) (A) (A) (A) (A) (A)
                 (A) (A) (A) (A) (A) (A) (A) (A) (A) (A) (A) (A)
                 (A) (A) (A) (A) (A) (A)
       Virtual   (A) (A) (A) (A) (A) (A) (A) (A) (A) (A) (A) (A)
                 (A) (A) (A) (A) (A) (A) (A) (A) (A) (A) (A) (A)
                 (A) (A) (A) (A) (A) (A) (A) (A) (A) (A) (A) (A)
                 (A) (A) (A) (A) (A) (A) (A) (A) (A) (A) (A) (A)
                 (A) (A) (A) (A) (A) (A) (A) (A) (A) (A) (A) (A)
                 (A) (A) (A) (A) (A) (A) (A) (A) (A) (A) (A) (A)
                 (A) (A) (A) (A) (A) (A) (A) (A) (A) (A) (A) (A)
                 (A) (A) (A) (A) (A) (A) (A) (A) (A) (A) (A) (A)
                 (A) (A) (A) (A) (A) (A) (A) (A) (A) (A) (A) (A)
                 (A) (A) (A) (A) (A) (A) (A) (A) (A) (A) (A) (A)
                 (A) (A) (A) (A) (A) (A) (A) (A) (A) (A) (A) (A)
                 (A) (A) (A) (A) (A) (A) (A) (A) (A) (A) (A) (A)
                 (A) (A) (A) (A) (A) (A) (A) (A) (A) (A) (A) (A)
                 (A) (A) (A) (A) (A) (A) (A) (A) (A) (A) (A) (A)
                 (A) (A) (A) (A) (A) (A) (A) (A) (A) (A) (A) (A)
                 (A) (A) (A) (A) (A) (A) (A) (A) (A) (A) (A) (A)
                 (A) (A) (A) (A) (A) (A) (A) (A) (A) (A) (A) (A)
                 (A) (A) (A) (A) (A) (A) (A) (A) (A) (A) (A) (A)
                 (A) (A) (A) (A) (A) (A) (A) (A) (A) (A) (A) (A)
                 (A) (A) (A) (A) (A) (A) (A) (A) (A) (A) (A) (A)
                 (A) (A) (A) (A) (A) (A) (A) (A) (A) (A) (A) (A)
                 (A) (A) (A) (A) (A) (A) (A) (A) (A) (A) (A) (A)
                 (A) (A) (A) (A) (A) (A) (A) (A) (A) (A) (A) (A)
                 (A) (A) (A) (A) (A) (A) (A) (A) (A) (A) (A) (A)
                 (A) (A) (A) (A) (A) (A) (A) (A) (A) (A) (A) (A)
                 (A) (A) (A) (A) (A) (A) (A) (A) (A) (A) (A) (A)
                 (A) (A) (A) (A) (A) (A) (A) (A) (A) (A) (A) (A)
                 (A) (A) (A) (A) (A) (A) (A) (A) (A) (A) (A) (A)
                 (A) (A) (A) (A) (A) (A) (A) (A) (A) (A) (A) (A)
                 (A) (A) (A) (A) (A) (A) (A) (A) (A) (A) (A) (A)
                 (A) (A) (A) (A) (A) (A) (A) (A) (A) (A) (A) (A)
                 (A)
 The electronic state is 1-A.
 Alpha  occ. eigenvalues --  -19.26631 -19.26443 -19.21448 -14.37435 -10.33449
 Alpha  occ. eigenvalues --  -10.31535 -10.30646 -10.24809 -10.21878 -10.21297
 Alpha  occ. eigenvalues --  -10.21099 -10.21093 -10.20724 -10.20686  -1.18116
 Alpha  occ. eigenvalues --   -1.08427  -0.98996  -0.91489  -0.86003  -0.81850
 Alpha  occ. eigenvalues --   -0.75260  -0.74849  -0.74328  -0.68911  -0.65979
 Alpha  occ. eigenvalues --   -0.62858  -0.60144  -0.57750  -0.55356  -0.52118
 Alpha  occ. eigenvalues --   -0.51443  -0.47762  -0.46626  -0.45693  -0.44318
 Alpha  occ. eigenvalues --   -0.43610  -0.42544  -0.42242  -0.41561  -0.40855
 Alpha  occ. eigenvalues --   -0.40327  -0.39935  -0.39477  -0.39017  -0.38450
 Alpha  occ. eigenvalues --   -0.38187  -0.36562  -0.36196  -0.34202  -0.33152
 Alpha  occ. eigenvalues --   -0.31999  -0.29330  -0.28430  -0.25181
 Alpha virt. eigenvalues --    0.00589   0.00927   0.01770   0.02483   0.02714
 Alpha virt. eigenvalues --    0.03825   0.04168   0.04359   0.04662   0.04951
 Alpha virt. eigenvalues --    0.06581   0.06795   0.06965   0.07255   0.07486
 Alpha virt. eigenvalues --    0.08252   0.08363   0.09128   0.09732   0.10272
 Alpha virt. eigenvalues --    0.10880   0.11170   0.11474   0.11695   0.12106
 Alpha virt. eigenvalues --    0.13291   0.13403   0.13638   0.13740   0.13950
 Alpha virt. eigenvalues --    0.14221   0.14567   0.14600   0.15380   0.15539
 Alpha virt. eigenvalues --    0.15885   0.16004   0.16160   0.16335   0.16728
 Alpha virt. eigenvalues --    0.17202   0.17325   0.17503   0.17773   0.18211
 Alpha virt. eigenvalues --    0.18371   0.18584   0.18928   0.19535   0.20061
 Alpha virt. eigenvalues --    0.20325   0.20549   0.20712   0.20890   0.21312
 Alpha virt. eigenvalues --    0.21831   0.22412   0.22836   0.23312   0.23590
 Alpha virt. eigenvalues --    0.24216   0.24728   0.24864   0.25256   0.25645
 Alpha virt. eigenvalues --    0.26403   0.26660   0.27155   0.27421   0.27772
 Alpha virt. eigenvalues --    0.28500   0.29208   0.29397   0.30065   0.30748
 Alpha virt. eigenvalues --    0.31167   0.31823   0.32301   0.33326   0.34146
 Alpha virt. eigenvalues --    0.34826   0.35059   0.35665   0.36158   0.36457
 Alpha virt. eigenvalues --    0.36626   0.37161   0.37619   0.38239   0.38745
 Alpha virt. eigenvalues --    0.38920   0.39724   0.40120   0.40783   0.41453
 Alpha virt. eigenvalues --    0.42156   0.42769   0.42984   0.43691   0.44192
 Alpha virt. eigenvalues --    0.44872   0.45906   0.47001   0.48352   0.49681
 Alpha virt. eigenvalues --    0.50873   0.50877   0.52544   0.53742   0.54566
 Alpha virt. eigenvalues --    0.55002   0.55705   0.56998   0.58058   0.58896
 Alpha virt. eigenvalues --    0.60442   0.61242   0.61928   0.62322   0.64294
 Alpha virt. eigenvalues --    0.64768   0.65051   0.65983   0.66303   0.66850
 Alpha virt. eigenvalues --    0.67874   0.68420   0.68860   0.69416   0.70528
 Alpha virt. eigenvalues --    0.72144   0.72839   0.73567   0.74267   0.74731
 Alpha virt. eigenvalues --    0.76108   0.76465   0.77526   0.77857   0.78720
 Alpha virt. eigenvalues --    0.79208   0.79827   0.80697   0.80759   0.81760
 Alpha virt. eigenvalues --    0.82438   0.83071   0.84225   0.85382   0.86613
 Alpha virt. eigenvalues --    0.87039   0.90690   0.93291   0.94927   0.95946
 Alpha virt. eigenvalues --    0.97116   0.98398   1.00156   1.01391   1.03354
 Alpha virt. eigenvalues --    1.05820   1.08236   1.11169   1.12398   1.14169
 Alpha virt. eigenvalues --    1.16739   1.18407   1.19315   1.23245   1.23938
 Alpha virt. eigenvalues --    1.24457   1.25750   1.26570   1.28120   1.29579
 Alpha virt. eigenvalues --    1.30460   1.31910   1.34528   1.35680   1.36809
 Alpha virt. eigenvalues --    1.39723   1.41724   1.43478   1.45356   1.45632
 Alpha virt. eigenvalues --    1.47310   1.47670   1.49532   1.49642   1.49930
 Alpha virt. eigenvalues --    1.51289   1.51921   1.54640   1.55638   1.57356
 Alpha virt. eigenvalues --    1.57890   1.59155   1.60308   1.60938   1.61600
 Alpha virt. eigenvalues --    1.62075   1.62145   1.63091   1.64074   1.64410
 Alpha virt. eigenvalues --    1.66171   1.67061   1.68927   1.69959   1.70278
 Alpha virt. eigenvalues --    1.71067   1.72980   1.73402   1.75777   1.76081
 Alpha virt. eigenvalues --    1.76600   1.76819   1.78127   1.78533   1.79089
 Alpha virt. eigenvalues --    1.80706   1.82640   1.83336   1.84642   1.86846
 Alpha virt. eigenvalues --    1.88391   1.89359   1.90934   1.91846   1.94194
 Alpha virt. eigenvalues --    1.95312   1.95712   1.95979   1.97606   1.98290
 Alpha virt. eigenvalues --    1.99395   2.05415   2.06259   2.07830   2.09068
 Alpha virt. eigenvalues --    2.10253   2.11471   2.13106   2.14019   2.15871
 Alpha virt. eigenvalues --    2.19098   2.19837   2.21900   2.23632   2.24307
 Alpha virt. eigenvalues --    2.26433   2.27280   2.29979   2.31094   2.32648
 Alpha virt. eigenvalues --    2.34335   2.36492   2.37995   2.39710   2.41906
 Alpha virt. eigenvalues --    2.45897   2.48733   2.51885   2.51975   2.53556
 Alpha virt. eigenvalues --    2.54510   2.55027   2.56465   2.58246   2.58433
 Alpha virt. eigenvalues --    2.58765   2.59227   2.60244   2.60973   2.62132
 Alpha virt. eigenvalues --    2.62808   2.63210   2.64384   2.66563   2.67778
 Alpha virt. eigenvalues --    2.68721   2.70436   2.71385   2.71917   2.73634
 Alpha virt. eigenvalues --    2.74446   2.76487   2.78476   2.80001   2.81132
 Alpha virt. eigenvalues --    2.81680   2.83911   2.86182   2.87807   2.93008
 Alpha virt. eigenvalues --    2.93572   2.96310   2.97192   2.99532   2.99967
 Alpha virt. eigenvalues --    3.01937   3.03279   3.06562   3.07809   3.08532
 Alpha virt. eigenvalues --    3.09398   3.12777   3.13698   3.15278   3.17629
 Alpha virt. eigenvalues --    3.18089   3.19252   3.24348   3.26983   3.29626
 Alpha virt. eigenvalues --    3.33973   3.34584   3.39216   3.41777   3.42890
 Alpha virt. eigenvalues --    3.44550   3.46503   3.52728   3.55705   3.69770
 Alpha virt. eigenvalues --    3.70930   3.80413   3.83483   3.85371   3.86053
 Alpha virt. eigenvalues --    3.86729   3.87210   3.87937   3.88945   3.90277
 Alpha virt. eigenvalues --    3.91451   3.95317   4.05609   4.10445   4.14200
 Alpha virt. eigenvalues --    4.21410   4.25181   4.27861   4.29685   4.33290
 Alpha virt. eigenvalues --    4.37801   4.47761   4.48815   4.86421   4.96446
 Alpha virt. eigenvalues --    5.07342   5.17787   5.20684   5.27394   5.41442
 Alpha virt. eigenvalues --    5.52030   5.55727   5.78889   5.83669  23.81947
 Alpha virt. eigenvalues --   23.88564  23.91011  24.05553  24.08037  24.08598
 Alpha virt. eigenvalues --   24.09610  24.11208  24.12196  24.18092  35.79667
 Alpha virt. eigenvalues --   50.08580  50.10464  50.20353
          Condensed to atoms (all electrons):
               1          2          3          4          5          6
     1  C   13.032193  -3.750147  -0.346327  -0.157496   0.384116   0.136830
     2  C   -3.750147  22.704636  -1.251761   0.094558  -6.210838   0.055192
     3  N   -0.346327  -1.251761   7.886477   0.428192  -0.548822  -0.785051
     4  H   -0.157496   0.094558   0.428192   0.350026  -0.092823  -0.089066
     5  C    0.384116  -6.210838  -0.548822  -0.092823  30.510877  -4.842042
     6  C    0.136830   0.055192  -0.785051  -0.089066  -4.842042  12.173284
     7  H   -0.011757  -0.075073   0.030799   0.000882   0.044879   0.367772
     8  H    0.002557  -0.028111  -0.024841   0.001241  -0.048161   0.498986
     9  H    0.011157   0.079368  -0.045705  -0.008910  -0.352435   0.627156
    10  O    0.013035   0.216951  -0.173606  -0.011626   0.204131  -0.438142
    11  O    0.012678   0.218038  -0.020537   0.004691  -0.104256   0.200131
    12  C    0.327366  -7.903510   1.213190  -0.029993   9.872674  -2.786938
    13  C    0.810797   0.456388   0.258353  -0.005802  -3.480738  -0.273786
    14  H    0.022036  -0.013991  -0.000368  -0.001012   0.010653  -0.010020
    15  H   -0.009068  -0.025462   0.002257   0.000938   0.029313  -0.007413
    16  H    0.015570   0.049503  -0.002157  -0.000698  -0.094352   0.005982
    17  O   -0.680714   0.195174  -0.095655  -0.005639   0.328632   0.055734
    18  C   -2.216217   5.735291  -0.287922   0.075531 -16.458398   0.705238
    19  C   -0.192799   4.458595   0.232343  -0.009004  -7.091657   1.678306
    20  C   -1.657282  -4.724481   0.655847   0.069390   1.217700  -0.915521
    21  H    0.018121  -0.088748  -0.008460   0.002487  -0.024372   0.026011
    22  H   -0.103698  -0.119832   0.021865  -0.001810   0.007003  -0.016268
    23  H    0.009780   0.037803   0.001218   0.001084  -0.013944   0.017220
    24  H    0.030269   0.092490  -0.009388  -0.003073  -0.114405   0.011747
    25  C   -0.467099  -2.928686  -0.146415  -0.004575   4.144935  -0.101489
    26  H   -0.011991  -0.058526  -0.003480  -0.000620   0.155790  -0.000353
    27  H    0.005997   0.033371  -0.007257  -0.001642  -0.235690   0.108038
    28  H    0.004658   0.006852  -0.000520   0.001073   0.091944  -0.066719
    29  H    0.520285  -0.162897   0.035206   0.000561  -0.037521  -0.006876
    30  H    0.545872  -0.065247  -0.053312  -0.005532   0.000808   0.011657
    31  H    0.418057  -0.111305  -0.013476  -0.003438   0.048985   0.011191
               7          8          9         10         11         12
     1  C   -0.011757   0.002557   0.011157   0.013035   0.012678   0.327366
     2  C   -0.075073  -0.028111   0.079368   0.216951   0.218038  -7.903510
     3  N    0.030799  -0.024841  -0.045705  -0.173606  -0.020537   1.213190
     4  H    0.000882   0.001241  -0.008910  -0.011626   0.004691  -0.029993
     5  C    0.044879  -0.048161  -0.352435   0.204131  -0.104256   9.872674
     6  C    0.367772   0.498986   0.627156  -0.438142   0.200131  -2.786938
     7  H    0.471454  -0.018677  -0.028200   0.000288  -0.001986   0.061815
     8  H   -0.018677   0.463719  -0.024719   0.009771   0.001571   0.013618
     9  H   -0.028200  -0.024719   0.486629  -0.010118   0.003437  -0.107625
    10  O    0.000288   0.009771  -0.010118   8.050805  -0.019450  -0.121704
    11  O   -0.001986   0.001571   0.003437  -0.019450   7.989257  -0.042087
    12  C    0.061815   0.013618  -0.107625  -0.121704  -0.042087  30.877145
    13  C   -0.012565  -0.010077   0.005491   0.183573  -0.427232  -6.608713
    14  H   -0.000240   0.000131   0.000031   0.002404   0.008007  -0.119991
    15  H    0.000427  -0.000094  -0.000346   0.001569  -0.005415  -0.066835
    16  H   -0.000408  -0.000065   0.000277   0.001677  -0.012004  -0.396027
    17  O    0.003419  -0.000004  -0.000908   0.016829  -0.037625   0.279938
    18  C   -0.188291  -0.045416   0.152088   0.187875   0.292052 -17.020046
    19  C   -0.014372  -0.070552   0.055152  -0.055546   0.111555  -6.183806
    20  C    0.026937   0.003760  -0.044971   0.009353  -0.039125   2.299801
    21  H    0.000449   0.001297  -0.000119   0.002618   0.000318  -0.061807
    22  H    0.000260  -0.001882   0.000136  -0.001841  -0.002073   0.056667
    23  H   -0.000080  -0.000430   0.000790   0.001926  -0.000433  -0.072977
    24  H   -0.003205  -0.005125   0.001083  -0.005162   0.000139  -0.023377
    25  C    0.115784   0.032081  -0.023345  -0.150276  -0.150938   3.765842
    26  H    0.001918  -0.000552  -0.000017  -0.008380   0.005735   0.155136
    27  H   -0.003603   0.002252   0.002665   0.001798   0.008367  -0.258605
    28  H   -0.003244   0.000932  -0.001860   0.007805  -0.008367   0.103802
    29  H   -0.000172   0.000004   0.000114   0.000939   0.000485   0.024389
    30  H    0.000127  -0.000324   0.000766   0.000562  -0.001871  -0.074116
    31  H   -0.000051   0.000256  -0.000199  -0.000792  -0.000009   0.005357
              13         14         15         16         17         18
     1  C    0.810797   0.022036  -0.009068   0.015570  -0.680714  -2.216217
     2  C    0.456388  -0.013991  -0.025462   0.049503   0.195174   5.735291
     3  N    0.258353  -0.000368   0.002257  -0.002157  -0.095655  -0.287922
     4  H   -0.005802  -0.001012   0.000938  -0.000698  -0.005639   0.075531
     5  C   -3.480738   0.010653   0.029313  -0.094352   0.328632 -16.458398
     6  C   -0.273786  -0.010020  -0.007413   0.005982   0.055734   0.705238
     7  H   -0.012565  -0.000240   0.000427  -0.000408   0.003419  -0.188291
     8  H   -0.010077   0.000131  -0.000094  -0.000065  -0.000004  -0.045416
     9  H    0.005491   0.000031  -0.000346   0.000277  -0.000908   0.152088
    10  O    0.183573   0.002404   0.001569   0.001677   0.016829   0.187875
    11  O   -0.427232   0.008007  -0.005415  -0.012004  -0.037625   0.292052
    12  C   -6.608713  -0.119991  -0.066835  -0.396027   0.279938 -17.020046
    13  C   13.527074   0.560134   0.408294   0.652498  -0.798640   1.749059
    14  H    0.560134   0.463386  -0.017749  -0.019759  -0.022867  -0.038388
    15  H    0.408294  -0.017749   0.462040  -0.025733   0.022122  -0.079006
    16  H    0.652498  -0.019759  -0.025733   0.469246  -0.019147   0.156421
    17  O   -0.798640  -0.022867   0.022122  -0.019147   8.474156   0.006538
    18  C    1.749059  -0.038388  -0.079006   0.156421   0.006538  37.071042
    19  C    1.451928  -0.062046  -0.004437   0.063895   0.143713   1.119459
    20  C   -0.707882  -0.003944   0.016302  -0.031529  -0.090607   1.150403
    21  H   -0.008658  -0.001036   0.000305   0.000079   0.005624   0.099953
    22  H   -0.004970  -0.002274   0.000026  -0.000607   0.011620   0.006479
    23  H    0.027328  -0.002845   0.000161   0.000101  -0.005455  -0.061145
    24  H    0.037247  -0.000011  -0.000841   0.001193  -0.004356  -0.054809
    25  C   -1.312291   0.009547   0.055802  -0.049872   0.091405  -7.174569
    26  H   -0.108210   0.000113  -0.005388  -0.002926   0.004970  -0.269512
    27  H    0.069106   0.001680  -0.002257   0.001752  -0.001969   0.117262
    28  H    0.016664  -0.000101   0.001846   0.000122  -0.004279  -0.179285
    29  H    0.026281   0.000900  -0.000095   0.000115  -0.023322  -0.007135
    30  H   -0.003237  -0.000210   0.000034   0.000200  -0.011605   0.041593
    31  H   -0.005566   0.000016  -0.000093   0.000019   0.021322  -0.021306
              19         20         21         22         23         24
     1  C   -0.192799  -1.657282   0.018121  -0.103698   0.009780   0.030269
     2  C    4.458595  -4.724481  -0.088748  -0.119832   0.037803   0.092490
     3  N    0.232343   0.655847  -0.008460   0.021865   0.001218  -0.009388
     4  H   -0.009004   0.069390   0.002487  -0.001810   0.001084  -0.003073
     5  C   -7.091657   1.217700  -0.024372   0.007003  -0.013944  -0.114405
     6  C    1.678306  -0.915521   0.026011  -0.016268   0.017220   0.011747
     7  H   -0.014372   0.026937   0.000449   0.000260  -0.000080  -0.003205
     8  H   -0.070552   0.003760   0.001297  -0.001882  -0.000430  -0.005125
     9  H    0.055152  -0.044971  -0.000119   0.000136   0.000790   0.001083
    10  O   -0.055546   0.009353   0.002618  -0.001841   0.001926  -0.005162
    11  O    0.111555  -0.039125   0.000318  -0.002073  -0.000433   0.000139
    12  C   -6.183806   2.299801  -0.061807   0.056667  -0.072977  -0.023377
    13  C    1.451928  -0.707882  -0.008658  -0.004970   0.027328   0.037247
    14  H   -0.062046  -0.003944  -0.001036  -0.002274  -0.002845  -0.000011
    15  H   -0.004437   0.016302   0.000305   0.000026   0.000161  -0.000841
    16  H    0.063895  -0.031529   0.000079  -0.000607   0.000101   0.001193
    17  O    0.143713  -0.090607   0.005624   0.011620  -0.005455  -0.004356
    18  C    1.119459   1.150403   0.099953   0.006479  -0.061145  -0.054809
    19  C   19.047826  -4.950974  -0.127885  -0.066225   0.521543   0.677206
    20  C   -4.950974  12.441261   0.489236   0.505118  -0.071989  -0.138304
    21  H   -0.127885   0.489236   0.448097  -0.020252   0.001903  -0.010145
    22  H   -0.066225   0.505118  -0.020252   0.455389  -0.002321   0.005461
    23  H    0.521543  -0.071989   0.001903  -0.002321   0.422097  -0.021377
    24  H    0.677206  -0.138304  -0.010145   0.005461  -0.021377   0.440538
    25  C   -4.130935   0.973743   0.008425   0.030767  -0.027573  -0.130452
    26  H   -0.106197   0.024255  -0.000235   0.001619  -0.004762  -0.000403
    27  H    0.112755  -0.040246  -0.000476  -0.000742   0.001289   0.000269
    28  H   -0.097776  -0.005422   0.000509  -0.000786   0.001348  -0.004835
    29  H   -0.018356  -0.007047   0.003878   0.002430   0.000571  -0.000557
    30  H   -0.000829  -0.043617  -0.001777  -0.002352  -0.000011   0.000271
    31  H   -0.011373   0.005167  -0.000804   0.003408  -0.000569   0.001385
              25         26         27         28         29         30
     1  C   -0.467099  -0.011991   0.005997   0.004658   0.520285   0.545872
     2  C   -2.928686  -0.058526   0.033371   0.006852  -0.162897  -0.065247
     3  N   -0.146415  -0.003480  -0.007257  -0.000520   0.035206  -0.053312
     4  H   -0.004575  -0.000620  -0.001642   0.001073   0.000561  -0.005532
     5  C    4.144935   0.155790  -0.235690   0.091944  -0.037521   0.000808
     6  C   -0.101489  -0.000353   0.108038  -0.066719  -0.006876   0.011657
     7  H    0.115784   0.001918  -0.003603  -0.003244  -0.000172   0.000127
     8  H    0.032081  -0.000552   0.002252   0.000932   0.000004  -0.000324
     9  H   -0.023345  -0.000017   0.002665  -0.001860   0.000114   0.000766
    10  O   -0.150276  -0.008380   0.001798   0.007805   0.000939   0.000562
    11  O   -0.150938   0.005735   0.008367  -0.008367   0.000485  -0.001871
    12  C    3.765842   0.155136  -0.258605   0.103802   0.024389  -0.074116
    13  C   -1.312291  -0.108210   0.069106   0.016664   0.026281  -0.003237
    14  H    0.009547   0.000113   0.001680  -0.000101   0.000900  -0.000210
    15  H    0.055802  -0.005388  -0.002257   0.001846  -0.000095   0.000034
    16  H   -0.049872  -0.002926   0.001752   0.000122   0.000115   0.000200
    17  O    0.091405   0.004970  -0.001969  -0.004279  -0.023322  -0.011605
    18  C   -7.174569  -0.269512   0.117262  -0.179285  -0.007135   0.041593
    19  C   -4.130935  -0.106197   0.112755  -0.097776  -0.018356  -0.000829
    20  C    0.973743   0.024255  -0.040246  -0.005422  -0.007047  -0.043617
    21  H    0.008425  -0.000235  -0.000476   0.000509   0.003878  -0.001777
    22  H    0.030767   0.001619  -0.000742  -0.000786   0.002430  -0.002352
    23  H   -0.027573  -0.004762   0.001289   0.001348   0.000571  -0.000011
    24  H   -0.130452  -0.000403   0.000269  -0.004835  -0.000557   0.000271
    25  C   12.176004   0.585325   0.407028   0.492034  -0.002176   0.002270
    26  H    0.585325   0.470747  -0.022272  -0.027319  -0.000198  -0.000043
    27  H    0.407028  -0.022272   0.450024  -0.018476   0.000058   0.000114
    28  H    0.492034  -0.027319  -0.018476   0.463470   0.000200   0.000023
    29  H   -0.002176  -0.000198   0.000058   0.000200   0.467588  -0.021503
    30  H    0.002270  -0.000043   0.000114   0.000023  -0.021503   0.487980
    31  H    0.000839   0.000085   0.000065  -0.000126  -0.025001  -0.022065
              31
     1  C    0.418057
     2  C   -0.111305
     3  N   -0.013476
     4  H   -0.003438
     5  C    0.048985
     6  C    0.011191
     7  H   -0.000051
     8  H    0.000256
     9  H   -0.000199
    10  O   -0.000792
    11  O   -0.000009
    12  C    0.005357
    13  C   -0.005566
    14  H    0.000016
    15  H   -0.000093
    16  H    0.000019
    17  O    0.021322
    18  C   -0.021306
    19  C   -0.011373
    20  C    0.005167
    21  H   -0.000804
    22  H    0.003408
    23  H   -0.000569
    24  H    0.001385
    25  C    0.000839
    26  H    0.000085
    27  H    0.000065
    28  H   -0.000126
    29  H   -0.025001
    30  H   -0.022065
    31  H    0.464785
 Mulliken charges:
               1
     1  C   -0.716776
     2  C   -0.915596
     3  N    0.059313
     4  H    0.402102
     5  C   -1.301986
     6  C   -0.350793
     7  H    0.234714
     8  H    0.246855
     9  H    0.223139
    10  O    0.082734
    11  O    0.016949
    12  C   -1.178586
    13  C   -0.471849
    14  H    0.237815
    15  H    0.248797
    16  H    0.236633
    17  O    0.141594
    18  C    1.435162
    19  C   -0.479507
    20  C   -0.415334
    21  H    0.245466
    22  H    0.239684
    23  H    0.239746
    24  H    0.230528
    25  C   -0.091140
    26  H    0.225694
    27  H    0.269345
    28  H    0.225833
    29  H    0.228851
    30  H    0.215376
    31  H    0.235238
 Sum of Mulliken charges =  -0.00000
 Mulliken charges with hydrogens summed into heavy atoms:
               1
     1  C   -0.037311
     2  C   -0.915596
     3  N    0.461415
     5  C   -1.301986
     6  C    0.353915
    10  O    0.082734
    11  O    0.016949
    12  C   -1.178586
    13  C    0.251395
    17  O    0.141594
    18  C    1.435162
    19  C   -0.009233
    20  C    0.069816
    25  C    0.629732
 Electronic spatial extent (au):  <R**2>=           2136.8342
 Charge=             -0.0000 electrons
 Dipole moment (field-independent basis, Debye):
    X=             -0.6584    Y=             -0.9143    Z=              4.9359  Tot=              5.0629
 Quadrupole moment (field-independent basis, Debye-Ang):
   XX=            -81.3297   YY=            -80.8404   ZZ=            -88.3011
   XY=              1.8842   XZ=              5.4456   YZ=              3.6669
 Traceless Quadrupole moment (field-independent basis, Debye-Ang):
   XX=              2.1607   YY=              2.6500   ZZ=             -4.8107
   XY=              1.8842   XZ=              5.4456   YZ=              3.6669
 Octapole moment (field-independent basis, Debye-Ang**2):
  XXX=             -9.3326  YYY=              6.1198  ZZZ=              6.2822  XYY=             10.6559
  XXY=             -2.5791  XXZ=              3.4873  XZZ=            -10.3050  YZZ=             -4.5124
  YYZ=             -1.3624  XYZ=             -4.9126
 Hexadecapole moment (field-independent basis, Debye-Ang**3):
 XXXX=          -1212.1483 YYYY=           -906.8158 ZZZZ=           -662.1650 XXXY=              3.5056
 XXXZ=              1.6943 YYYX=             -2.7700 YYYZ=              9.4668 ZZZX=             15.3806
 ZZZY=              6.5738 XXYY=           -361.5220 XXZZ=           -322.4653 YYZZ=           -249.7385
 XXYZ=              4.7292 YYXZ=              2.1738 ZZXY=              5.6315
 N-N= 1.095120291781D+03 E-N=-3.758469619402D+03  KE= 6.684821841361D+02
 ******************************Gaussian NBO Version 3.1******************************
             N A T U R A L   A T O M I C   O R B I T A L   A N D
          N A T U R A L   B O N D   O R B I T A L   A N A L Y S I S
 ******************************Gaussian NBO Version 3.1******************************

       /RESON  / : Allow strongly delocalized NBO set
       /E2PERT / : Analyze NBO Fock matrix
                   Print threshold set to  0.01
       /FNBO   / : Write the NBO Fock matrix to LFN 69
       /FILE   / : Set to EXAMPLE                                             

 Analyzing the SCF density

 Job title: Conformation                                                    

 Storage needed:    550328 in NPA,    731580 in NBO ( 104852485 available)
 GSVD:  LWork=       56335 too small for GESVD, short by      193412 words or      193412 for optimal perf.


 NATURAL POPULATIONS:  Natural atomic orbital occupancies 
                                                          
   NAO  Atom  No  lang   Type(AO)    Occupancy      Energy
 ----------------------------------------------------------
     1    C    1  S      Cor( 1S)     1.99919     -10.05468
     2    C    1  S      Val( 2S)     1.07564      -0.23699
     3    C    1  S      Ryd( 4S)     0.00067       1.04606
     4    C    1  S      Ryd( 3S)     0.00005       0.62627
     5    C    1  S      Ryd( 5S)     0.00000      23.49723
     6    C    1  px     Val( 2p)     1.09007      -0.08778
     7    C    1  px     Ryd( 4p)     0.00208       0.57252
     8    C    1  px     Ryd( 3p)     0.00017       0.41697
     9    C    1  px     Ryd( 5p)     0.00006       3.05763
    10    C    1  py     Val( 2p)     1.23202      -0.09159
    11    C    1  py     Ryd( 4p)     0.00270       0.63004
    12    C    1  py     Ryd( 3p)     0.00007       0.49131
    13    C    1  py     Ryd( 5p)     0.00002       3.00057
    14    C    1  pz     Val( 2p)     1.20879      -0.09050
    15    C    1  pz     Ryd( 4p)     0.00337       0.62455
    16    C    1  pz     Ryd( 3p)     0.00010       0.47218
    17    C    1  pz     Ryd( 5p)     0.00003       3.00698
    18    C    1  dxy    Ryd( 3d)     0.00073       2.16949
    19    C    1  dxz    Ryd( 3d)     0.00039       2.03235
    20    C    1  dyz    Ryd( 3d)     0.00038       1.97457
    21    C    1  dx2y2  Ryd( 3d)     0.00060       2.15881
    22    C    1  dz2    Ryd( 3d)     0.00105       2.27575
 
    23    C    2  S      Cor( 1S)     1.99913     -10.17579
    24    C    2  S      Val( 2S)     0.85611      -0.18237
    25    C    2  S      Ryd( 4S)     0.00171       1.19941
    26    C    2  S      Ryd( 3S)     0.00146       0.38116
    27    C    2  S      Ryd( 5S)     0.00002      23.66609
    28    C    2  px     Val( 2p)     0.96246      -0.09194
    29    C    2  px     Ryd( 3p)     0.00665       1.09678
    30    C    2  px     Ryd( 4p)     0.00021       1.38691
    31    C    2  px     Ryd( 5p)     0.00008       2.75756
    32    C    2  py     Val( 2p)     0.71682      -0.04535
    33    C    2  py     Ryd( 3p)     0.00951       0.76335
    34    C    2  py     Ryd( 4p)     0.00027       1.30085
    35    C    2  py     Ryd( 5p)     0.00007       2.45677
    36    C    2  pz     Val( 2p)     0.98077      -0.08838
    37    C    2  pz     Ryd( 3p)     0.00504       0.78094
    38    C    2  pz     Ryd( 4p)     0.00030       1.30624
    39    C    2  pz     Ryd( 5p)     0.00007       2.50925
    40    C    2  dxy    Ryd( 3d)     0.00214       2.14540
    41    C    2  dxz    Ryd( 3d)     0.00140       2.02842
    42    C    2  dyz    Ryd( 3d)     0.00196       1.98456
    43    C    2  dx2y2  Ryd( 3d)     0.00216       2.15727
    44    C    2  dz2    Ryd( 3d)     0.00175       2.33287
 
    45    N    3  S      Cor( 1S)     1.99931     -14.18181
    46    N    3  S      Val( 2S)     1.31466      -0.54932
    47    N    3  S      Ryd( 3S)     0.00366       0.61361
    48    N    3  S      Ryd( 4S)     0.00095       1.58862
    49    N    3  S      Ryd( 5S)     0.00000      35.15649
    50    N    3  px     Val( 2p)     1.29823      -0.21436
    51    N    3  px     Ryd( 4p)     0.00250       0.93962
    52    N    3  px     Ryd( 3p)     0.00012       0.82226
    53    N    3  px     Ryd( 5p)     0.00006       4.37470
    54    N    3  py     Val( 2p)     1.56205      -0.23755
    55    N    3  py     Ryd( 4p)     0.00602       0.80330
    56    N    3  py     Ryd( 3p)     0.00024       0.79917
    57    N    3  py     Ryd( 5p)     0.00005       4.21823
    58    N    3  pz     Val( 2p)     1.53515      -0.21699
    59    N    3  pz     Ryd( 4p)     0.00476       0.97525
    60    N    3  pz     Ryd( 3p)     0.00016       0.81516
    61    N    3  pz     Ryd( 5p)     0.00003       4.26819
    62    N    3  dxy    Ryd( 3d)     0.00073       2.66100
    63    N    3  dxz    Ryd( 3d)     0.00037       2.45700
    64    N    3  dyz    Ryd( 3d)     0.00067       2.53529
    65    N    3  dx2y2  Ryd( 3d)     0.00089       2.69278
    66    N    3  dz2    Ryd( 3d)     0.00138       2.81578
 
    67    H    4  S      Val( 1S)     0.59950       0.11656
    68    H    4  S      Ryd( 3S)     0.00189       0.75545
    69    H    4  S      Ryd( 4S)     0.00058       2.12310
    70    H    4  S      Ryd( 2S)     0.00007       0.41255
    71    H    4  px     Ryd( 2p)     0.00035       1.97186
    72    H    4  py     Ryd( 2p)     0.00048       2.02849
    73    H    4  pz     Ryd( 2p)     0.00070       2.58225
 
    74    C    5  S      Cor( 1S)     1.99904     -10.18019
    75    C    5  S      Val( 2S)     0.84848      -0.18774
    76    C    5  S      Ryd( 4S)     0.00345       1.21810
    77    C    5  S      Ryd( 3S)     0.00132       0.56678
    78    C    5  S      Ryd( 5S)     0.00003      23.20254
    79    C    5  px     Val( 2p)     0.84603      -0.07304
    80    C    5  px     Ryd( 3p)     0.00636       0.84707
    81    C    5  px     Ryd( 4p)     0.00028       1.64307
    82    C    5  px     Ryd( 5p)     0.00013       2.36484
    83    C    5  py     Val( 2p)     1.04044      -0.11419
    84    C    5  py     Ryd( 3p)     0.00893       0.95506
    85    C    5  py     Ryd( 4p)     0.00020       1.61956
    86    C    5  py     Ryd( 5p)     0.00008       2.37217
    87    C    5  pz     Val( 2p)     0.77764      -0.08643
    88    C    5  pz     Ryd( 3p)     0.00780       0.75181
    89    C    5  pz     Ryd( 4p)     0.00026       1.65927
    90    C    5  pz     Ryd( 5p)     0.00008       2.18702
    91    C    5  dxy    Ryd( 3d)     0.00171       2.08756
    92    C    5  dxz    Ryd( 3d)     0.00256       1.93190
    93    C    5  dyz    Ryd( 3d)     0.00136       2.17437
    94    C    5  dx2y2  Ryd( 3d)     0.00181       2.31268
    95    C    5  dz2    Ryd( 3d)     0.00239       2.09855
 
    96    C    6  S      Cor( 1S)     1.99918     -10.05897
    97    C    6  S      Val( 2S)     1.07787      -0.24013
    98    C    6  S      Ryd( 4S)     0.00090       1.01255
    99    C    6  S      Ryd( 3S)     0.00008       0.67646
   100    C    6  S      Ryd( 5S)     0.00000      23.60406
   101    C    6  px     Val( 2p)     1.20066      -0.09144
   102    C    6  px     Ryd( 3p)     0.00352       0.61635
   103    C    6  px     Ryd( 4p)     0.00013       0.65564
   104    C    6  px     Ryd( 5p)     0.00004       2.88347
   105    C    6  py     Val( 2p)     1.10713      -0.09022
   106    C    6  py     Ryd( 3p)     0.00236       0.60959
   107    C    6  py     Ryd( 4p)     0.00013       0.62289
   108    C    6  py     Ryd( 5p)     0.00005       2.91652
   109    C    6  pz     Val( 2p)     1.22570      -0.09622
   110    C    6  pz     Ryd( 3p)     0.00337       0.63301
   111    C    6  pz     Ryd( 4p)     0.00010       0.68661
   112    C    6  pz     Ryd( 5p)     0.00002       2.86838
   113    C    6  dxy    Ryd( 3d)     0.00044       2.10815
   114    C    6  dxz    Ryd( 3d)     0.00037       1.95429
   115    C    6  dyz    Ryd( 3d)     0.00074       2.19896
   116    C    6  dx2y2  Ryd( 3d)     0.00089       2.24710
   117    C    6  dz2    Ryd( 3d)     0.00072       2.17238
 
   118    H    7  S      Val( 1S)     0.76805       0.06215
   119    H    7  S      Ryd( 3S)     0.00077       0.79598
   120    H    7  S      Ryd( 4S)     0.00021       1.86877
   121    H    7  S      Ryd( 2S)     0.00003       0.51774
   122    H    7  px     Ryd( 2p)     0.00030       2.75466
   123    H    7  py     Ryd( 2p)     0.00013       1.85831
   124    H    7  pz     Ryd( 2p)     0.00011       1.84984
 
   125    H    8  S      Val( 1S)     0.76300       0.05955
   126    H    8  S      Ryd( 3S)     0.00068       0.89986
   127    H    8  S      Ryd( 4S)     0.00018       1.75600
   128    H    8  S      Ryd( 2S)     0.00005       0.59744
   129    H    8  px     Ryd( 2p)     0.00013       1.92186
   130    H    8  py     Ryd( 2p)     0.00017       1.95436
   131    H    8  pz     Ryd( 2p)     0.00027       2.58418
 
   132    H    9  S      Val( 1S)     0.76562       0.05850
   133    H    9  S      Ryd( 3S)     0.00106       0.84563
   134    H    9  S      Ryd( 4S)     0.00015       1.94449
   135    H    9  S      Ryd( 2S)     0.00003       0.40218
   136    H    9  px     Ryd( 2p)     0.00012       1.89758
   137    H    9  py     Ryd( 2p)     0.00023       2.32708
   138    H    9  pz     Ryd( 2p)     0.00020       2.24020
 
   139    O   10  S      Cor( 1S)     1.99974     -19.06613
   140    O   10  S      Val( 2S)     1.70634      -0.94497
   141    O   10  S      Ryd( 4S)     0.00125       1.72233
   142    O   10  S      Ryd( 3S)     0.00007       1.21041
   143    O   10  S      Ryd( 5S)     0.00000      49.50590
   144    O   10  px     Val( 2p)     1.89107      -0.34156
   145    O   10  px     Ryd( 3p)     0.00265       0.62573
   146    O   10  px     Ryd( 4p)     0.00031       0.89183
   147    O   10  px     Ryd( 5p)     0.00003       5.00673
   148    O   10  py     Val( 2p)     1.07024      -0.27369
   149    O   10  py     Ryd( 3p)     0.00409       0.92296
   150    O   10  py     Ryd( 4p)     0.00059       1.03569
   151    O   10  py     Ryd( 5p)     0.00006       5.03534
   152    O   10  pz     Val( 2p)     1.68150      -0.34546
   153    O   10  pz     Ryd( 3p)     0.00323       0.67541
   154    O   10  pz     Ryd( 4p)     0.00091       0.89736
   155    O   10  pz     Ryd( 5p)     0.00009       5.06644
   156    O   10  dxy    Ryd( 3d)     0.00057       2.93684
   157    O   10  dxz    Ryd( 3d)     0.00069       3.18795
   158    O   10  dyz    Ryd( 3d)     0.00068       3.08038
   159    O   10  dx2y2  Ryd( 3d)     0.00120       3.15397
   160    O   10  dz2    Ryd( 3d)     0.00109       3.22460
 
   161    O   11  S      Cor( 1S)     1.99972     -19.06598
   162    O   11  S      Val( 2S)     1.69918      -0.94528
   163    O   11  S      Ryd( 3S)     0.00150       1.37767
   164    O   11  S      Ryd( 4S)     0.00011       1.53431
   165    O   11  S      Ryd( 5S)     0.00000      49.70019
   166    O   11  px     Val( 2p)     1.86468      -0.34168
   167    O   11  px     Ryd( 3p)     0.00277       0.61821
   168    O   11  px     Ryd( 4p)     0.00032       0.94068
   169    O   11  px     Ryd( 5p)     0.00003       5.01034
   170    O   11  py     Val( 2p)     1.08271      -0.27635
   171    O   11  py     Ryd( 3p)     0.00415       0.87596
   172    O   11  py     Ryd( 4p)     0.00064       1.09211
   173    O   11  py     Ryd( 5p)     0.00006       5.03329
   174    O   11  pz     Val( 2p)     1.69445      -0.35155
   175    O   11  pz     Ryd( 3p)     0.00337       0.64990
   176    O   11  pz     Ryd( 4p)     0.00087       0.91946
   177    O   11  pz     Ryd( 5p)     0.00010       5.08549
   178    O   11  dxy    Ryd( 3d)     0.00050       2.94292
   179    O   11  dxz    Ryd( 3d)     0.00079       3.21803
   180    O   11  dyz    Ryd( 3d)     0.00074       3.08085
   181    O   11  dx2y2  Ryd( 3d)     0.00125       3.17598
   182    O   11  dz2    Ryd( 3d)     0.00113       3.21333
 
   183    C   12  S      Cor( 1S)     1.99897     -10.20585
   184    C   12  S      Val( 2S)     0.84113      -0.19596
   185    C   12  S      Ryd( 4S)     0.00466       1.10161
   186    C   12  S      Ryd( 3S)     0.00205       0.58338
   187    C   12  S      Ryd( 5S)     0.00003      23.34979
   188    C   12  px     Val( 2p)     0.70094      -0.06390
   189    C   12  px     Ryd( 3p)     0.00869       0.86291
   190    C   12  px     Ryd( 4p)     0.00024       1.41957
   191    C   12  px     Ryd( 5p)     0.00007       2.46925
   192    C   12  py     Val( 2p)     1.04911      -0.11890
   193    C   12  py     Ryd( 3p)     0.00738       1.06907
   194    C   12  py     Ryd( 4p)     0.00027       1.40709
   195    C   12  py     Ryd( 5p)     0.00012       2.51858
   196    C   12  pz     Val( 2p)     0.78704      -0.08601
   197    C   12  pz     Ryd( 3p)     0.00962       0.78569
   198    C   12  pz     Ryd( 4p)     0.00023       1.44683
   199    C   12  pz     Ryd( 5p)     0.00008       2.36724
   200    C   12  dxy    Ryd( 3d)     0.00204       1.99626
   201    C   12  dxz    Ryd( 3d)     0.00364       1.95939
   202    C   12  dyz    Ryd( 3d)     0.00137       2.14939
   203    C   12  dx2y2  Ryd( 3d)     0.00259       2.36936
   204    C   12  dz2    Ryd( 3d)     0.00264       2.10264
 
   205    C   13  S      Cor( 1S)     1.99916     -10.06149
   206    C   13  S      Val( 2S)     1.08205      -0.24517
   207    C   13  S      Ryd( 4S)     0.00077       0.98967
   208    C   13  S      Ryd( 3S)     0.00008       0.70248
   209    C   13  S      Ryd( 5S)     0.00000      23.60988
   210    C   13  px     Val( 2p)     1.22565      -0.09603
   211    C   13  px     Ryd( 4p)     0.00325       0.65995
   212    C   13  px     Ryd( 3p)     0.00011       0.64761
   213    C   13  px     Ryd( 5p)     0.00003       2.87125
   214    C   13  py     Val( 2p)     1.08048      -0.09363
   215    C   13  py     Ryd( 4p)     0.00197       0.61199
   216    C   13  py     Ryd( 3p)     0.00015       0.56858
   217    C   13  py     Ryd( 5p)     0.00006       2.91084
   218    C   13  pz     Val( 2p)     1.23206      -0.09922
   219    C   13  pz     Ryd( 3p)     0.00329       0.64751
   220    C   13  pz     Ryd( 4p)     0.00012       0.66508
   221    C   13  pz     Ryd( 5p)     0.00002       2.87504
   222    C   13  dxy    Ryd( 3d)     0.00031       2.04124
   223    C   13  dxz    Ryd( 3d)     0.00055       2.02638
   224    C   13  dyz    Ryd( 3d)     0.00060       2.14125
   225    C   13  dx2y2  Ryd( 3d)     0.00097       2.31735
   226    C   13  dz2    Ryd( 3d)     0.00070       2.16551
 
   227    H   14  S      Val( 1S)     0.76138       0.05744
   228    H   14  S      Ryd( 3S)     0.00064       0.89052
   229    H   14  S      Ryd( 4S)     0.00019       1.71477
   230    H   14  S      Ryd( 2S)     0.00004       0.63603
   231    H   14  px     Ryd( 2p)     0.00015       1.97447
   232    H   14  py     Ryd( 2p)     0.00018       1.93078
   233    H   14  pz     Ryd( 2p)     0.00025       2.53604
 
   234    H   15  S      Val( 1S)     0.76359       0.06054
   235    H   15  S      Ryd( 3S)     0.00070       0.80715
   236    H   15  S      Ryd( 4S)     0.00017       1.95122
   237    H   15  S      Ryd( 2S)     0.00003       0.43503
   238    H   15  px     Ryd( 2p)     0.00032       2.74043
   239    H   15  py     Ryd( 2p)     0.00014       1.84869
   240    H   15  pz     Ryd( 2p)     0.00011       1.85531
 
   241    H   16  S      Val( 1S)     0.76129       0.05894
   242    H   16  S      Ryd( 3S)     0.00101       0.92607
   243    H   16  S      Ryd( 4S)     0.00019       1.63699
   244    H   16  S      Ryd( 2S)     0.00005       0.63776
   245    H   16  px     Ryd( 2p)     0.00013       1.96384
   246    H   16  py     Ryd( 2p)     0.00020       2.21595
   247    H   16  pz     Ryd( 2p)     0.00022       2.30374
 
   248    O   17  S      Cor( 1S)     1.99971     -18.98137
   249    O   17  S      Val( 2S)     1.61636      -0.89618
   250    O   17  S      Ryd( 3S)     0.00372       1.07757
   251    O   17  S      Ryd( 4S)     0.00018       1.82055
   252    O   17  S      Ryd( 5S)     0.00000      49.82361
   253    O   17  px     Val( 2p)     1.49269      -0.31774
   254    O   17  px     Ryd( 3p)     0.00245       1.01808
   255    O   17  px     Ryd( 4p)     0.00103       1.03503
   256    O   17  px     Ryd( 5p)     0.00010       5.19099
   257    O   17  py     Val( 2p)     1.68121      -0.32238
   258    O   17  py     Ryd( 3p)     0.00443       0.80028
   259    O   17  py     Ryd( 4p)     0.00076       0.98918
   260    O   17  py     Ryd( 5p)     0.00006       5.15370
   261    O   17  pz     Val( 2p)     1.85515      -0.31942
   262    O   17  pz     Ryd( 3p)     0.00626       0.67572
   263    O   17  pz     Ryd( 4p)     0.00055       0.94429
   264    O   17  pz     Ryd( 5p)     0.00003       5.11282
   265    O   17  dxy    Ryd( 3d)     0.00059       3.23618
   266    O   17  dxz    Ryd( 3d)     0.00051       3.08760
   267    O   17  dyz    Ryd( 3d)     0.00060       3.16023
   268    O   17  dx2y2  Ryd( 3d)     0.00096       3.44234
   269    O   17  dz2    Ryd( 3d)     0.00063       3.17831
 
   270    C   18  S      Cor( 1S)     1.99889     -10.09288
   271    C   18  S      Val( 2S)     0.89721      -0.19616
   272    C   18  S      Ryd( 3S)     0.00350       1.04446
   273    C   18  S      Ryd( 4S)     0.00088       1.41038
   274    C   18  S      Ryd( 5S)     0.00001      23.56570
   275    C   18  px     Val( 2p)     1.09484      -0.11470
   276    C   18  px     Ryd( 4p)     0.00495       1.01872
   277    C   18  px     Ryd( 3p)     0.00081       0.43058
   278    C   18  px     Ryd( 5p)     0.00026       2.80632
   279    C   18  py     Val( 2p)     1.03447      -0.10863
   280    C   18  py     Ryd( 4p)     0.00322       0.70184
   281    C   18  py     Ryd( 3p)     0.00204       0.51177
   282    C   18  py     Ryd( 5p)     0.00025       2.69346
   283    C   18  pz     Val( 2p)     1.06601      -0.11048
   284    C   18  pz     Ryd( 4p)     0.00415       0.77387
   285    C   18  pz     Ryd( 3p)     0.00111       0.49904
   286    C   18  pz     Ryd( 5p)     0.00026       2.48248
   287    C   18  dxy    Ryd( 3d)     0.00054       1.93509
   288    C   18  dxz    Ryd( 3d)     0.00088       2.25533
   289    C   18  dyz    Ryd( 3d)     0.00116       2.29214
   290    C   18  dx2y2  Ryd( 3d)     0.00087       2.30815
   291    C   18  dz2    Ryd( 3d)     0.00056       2.05587
 
   292    C   19  S      Cor( 1S)     1.99920     -10.06812
   293    C   19  S      Val( 2S)     1.00248      -0.20690
   294    C   19  S      Ryd( 4S)     0.00139       1.19797
   295    C   19  S      Ryd( 3S)     0.00010       0.67511
   296    C   19  S      Ryd( 5S)     0.00001      23.60967
   297    C   19  px     Val( 2p)     1.03962      -0.07295
   298    C   19  px     Ryd( 4p)     0.00338       0.69189
   299    C   19  px     Ryd( 3p)     0.00010       0.62929
   300    C   19  px     Ryd( 5p)     0.00013       3.13362
   301    C   19  py     Val( 2p)     1.23610      -0.08455
   302    C   19  py     Ryd( 4p)     0.00508       0.84431
   303    C   19  py     Ryd( 3p)     0.00019       0.66514
   304    C   19  py     Ryd( 5p)     0.00001       3.08592
   305    C   19  pz     Val( 2p)     1.11426      -0.08229
   306    C   19  pz     Ryd( 4p)     0.00384       0.57490
   307    C   19  pz     Ryd( 3p)     0.00016       0.50008
   308    C   19  pz     Ryd( 5p)     0.00004       3.21688
   309    C   19  dxy    Ryd( 3d)     0.00052       1.94366
   310    C   19  dxz    Ryd( 3d)     0.00065       2.19993
   311    C   19  dyz    Ryd( 3d)     0.00096       2.27130
   312    C   19  dx2y2  Ryd( 3d)     0.00090       2.30160
   313    C   19  dz2    Ryd( 3d)     0.00034       2.02348
 
   314    C   20  S      Cor( 1S)     1.99914     -10.05975
   315    C   20  S      Val( 2S)     1.01726      -0.21057
   316    C   20  S      Ryd( 4S)     0.00159       1.21628
   317    C   20  S      Ryd( 3S)     0.00010       0.75982
   318    C   20  S      Ryd( 5S)     0.00001      23.50328
   319    C   20  px     Val( 2p)     1.09095      -0.07535
   320    C   20  px     Ryd( 4p)     0.00296       0.65134
   321    C   20  px     Ryd( 3p)     0.00016       0.44152
   322    C   20  px     Ryd( 5p)     0.00010       3.20157
   323    C   20  py     Val( 2p)     1.22577      -0.07728
   324    C   20  py     Ryd( 4p)     0.00406       0.86522
   325    C   20  py     Ryd( 3p)     0.00020       0.53129
   326    C   20  py     Ryd( 5p)     0.00005       3.13602
   327    C   20  pz     Val( 2p)     1.07440      -0.08150
   328    C   20  pz     Ryd( 4p)     0.00285       0.61443
   329    C   20  pz     Ryd( 3p)     0.00014       0.36672
   330    C   20  pz     Ryd( 5p)     0.00009       3.24204
   331    C   20  dxy    Ryd( 3d)     0.00085       2.15833
   332    C   20  dxz    Ryd( 3d)     0.00049       2.05641
   333    C   20  dyz    Ryd( 3d)     0.00052       2.03426
   334    C   20  dx2y2  Ryd( 3d)     0.00070       2.19323
   335    C   20  dz2    Ryd( 3d)     0.00082       2.29310
 
   336    H   21  S      Val( 1S)     0.77114       0.06949
   337    H   21  S      Ryd( 3S)     0.00089       0.85038
   338    H   21  S      Ryd( 4S)     0.00020       2.11945
   339    H   21  S      Ryd( 2S)     0.00006       0.34835
   340    H   21  px     Ryd( 2p)     0.00022       2.15807
   341    H   21  py     Ryd( 2p)     0.00022       2.39691
   342    H   21  pz     Ryd( 2p)     0.00022       2.09801
 
   343    H   22  S      Val( 1S)     0.77586       0.06791
   344    H   22  S      Ryd( 3S)     0.00088       0.96431
   345    H   22  S      Ryd( 4S)     0.00021       1.90737
   346    H   22  S      Ryd( 2S)     0.00007       0.44981
   347    H   22  px     Ryd( 2p)     0.00020       2.13612
   348    H   22  py     Ryd( 2p)     0.00025       2.49404
   349    H   22  pz     Ryd( 2p)     0.00016       1.99704
 
   350    H   23  S      Val( 1S)     0.76717       0.07016
   351    H   23  S      Ryd( 3S)     0.00095       1.06820
   352    H   23  S      Ryd( 4S)     0.00024       1.88881
   353    H   23  S      Ryd( 2S)     0.00004       0.38332
   354    H   23  px     Ryd( 2p)     0.00021       1.93539
   355    H   23  py     Ryd( 2p)     0.00023       2.44970
   356    H   23  pz     Ryd( 2p)     0.00021       2.30728
 
   357    H   24  S      Val( 1S)     0.76757       0.06935
   358    H   24  S      Ryd( 3S)     0.00093       1.10314
   359    H   24  S      Ryd( 4S)     0.00021       1.83467
   360    H   24  S      Ryd( 2S)     0.00004       0.40433
   361    H   24  px     Ryd( 2p)     0.00020       1.94887
   362    H   24  py     Ryd( 2p)     0.00023       2.45156
   363    H   24  pz     Ryd( 2p)     0.00021       2.27347
 
   364    C   25  S      Cor( 1S)     1.99928     -10.05517
   365    C   25  S      Val( 2S)     1.06336      -0.22738
   366    C   25  S      Ryd( 4S)     0.00057       1.10998
   367    C   25  S      Ryd( 3S)     0.00007       0.80443
   368    C   25  S      Ryd( 5S)     0.00000      23.52117
   369    C   25  px     Val( 2p)     1.07507      -0.07877
   370    C   25  px     Ryd( 3p)     0.00225       0.57152
   371    C   25  px     Ryd( 4p)     0.00014       0.68634
   372    C   25  px     Ryd( 5p)     0.00004       2.97426
   373    C   25  py     Val( 2p)     1.23495      -0.09152
   374    C   25  py     Ryd( 3p)     0.00339       0.66686
   375    C   25  py     Ryd( 4p)     0.00015       0.73272
   376    C   25  py     Ryd( 5p)     0.00001       2.91424
   377    C   25  pz     Val( 2p)     1.22513      -0.08834
   378    C   25  pz     Ryd( 3p)     0.00437       0.65124
   379    C   25  pz     Ryd( 4p)     0.00011       0.85477
   380    C   25  pz     Ryd( 5p)     0.00001       2.91669
   381    C   25  dxy    Ryd( 3d)     0.00030       1.92767
   382    C   25  dxz    Ryd( 3d)     0.00082       2.21736
   383    C   25  dyz    Ryd( 3d)     0.00096       2.22714
   384    C   25  dx2y2  Ryd( 3d)     0.00084       2.32083
   385    C   25  dz2    Ryd( 3d)     0.00033       1.98768
 
   386    H   26  S      Val( 1S)     0.77023       0.06551
   387    H   26  S      Ryd( 3S)     0.00073       0.91972
   388    H   26  S      Ryd( 4S)     0.00021       1.87773
   389    H   26  S      Ryd( 2S)     0.00003       0.45935
   390    H   26  px     Ryd( 2p)     0.00011       1.87114
   391    H   26  py     Ryd( 2p)     0.00027       2.49218
   392    H   26  pz     Ryd( 2p)     0.00017       2.13390
 
   393    H   27  S      Val( 1S)     0.76971       0.06683
   394    H   27  S      Ryd( 3S)     0.00094       1.15223
   395    H   27  S      Ryd( 4S)     0.00020       1.49540
   396    H   27  S      Ryd( 2S)     0.00003       0.62253
   397    H   27  px     Ryd( 2p)     0.00018       2.19774
   398    H   27  py     Ryd( 2p)     0.00013       1.88418
   399    H   27  pz     Ryd( 2p)     0.00025       2.42442
 
   400    H   28  S      Val( 1S)     0.77047       0.06495
   401    H   28  S      Ryd( 3S)     0.00077       0.90438
   402    H   28  S      Ryd( 4S)     0.00019       1.91897
   403    H   28  S      Ryd( 2S)     0.00004       0.44957
   404    H   28  px     Ryd( 2p)     0.00013       1.92294
   405    H   28  py     Ryd( 2p)     0.00024       2.35716
   406    H   28  pz     Ryd( 2p)     0.00018       2.21127
 
   407    H   29  S      Val( 1S)     0.76814       0.05990
   408    H   29  S      Ryd( 3S)     0.00063       0.76453
   409    H   29  S      Ryd( 4S)     0.00022       1.76177
   410    H   29  S      Ryd( 2S)     0.00003       0.63474
   411    H   29  px     Ryd( 2p)     0.00017       2.09854
   412    H   29  py     Ryd( 2p)     0.00025       2.44215
   413    H   29  pz     Ryd( 2p)     0.00014       1.89362
 
   414    H   30  S      Val( 1S)     0.77375       0.05684
   415    H   30  S      Ryd( 3S)     0.00109       0.91297
   416    H   30  S      Ryd( 4S)     0.00020       1.85202
   417    H   30  S      Ryd( 2S)     0.00004       0.38264
   418    H   30  px     Ryd( 2p)     0.00012       1.84523
   419    H   30  py     Ryd( 2p)     0.00013       1.84908
   420    H   30  pz     Ryd( 2p)     0.00030       2.74438
 
   421    H   31  S      Val( 1S)     0.76759       0.05901
   422    H   31  S      Ryd( 2S)     0.00062       0.69903
   423    H   31  S      Ryd( 4S)     0.00020       1.75583
   424    H   31  S      Ryd( 3S)     0.00003       0.74014
   425    H   31  px     Ryd( 2p)     0.00017       2.06815
   426    H   31  py     Ryd( 2p)     0.00025       2.40700
   427    H   31  pz     Ryd( 2p)     0.00014       1.94105

 WARNING:  1 low occupancy (<1.9990e) core orbital  found on  C   12
           1 low occupancy (<1.9990e) core orbital  found on  C   18

 WARNING:  Population inversion found on atom  C    1
           Population inversion found on atom  C    2
           Population inversion found on atom  N    3
           Population inversion found on atom  H    4
           Population inversion found on atom  C    5
           Population inversion found on atom  C    6
           Population inversion found on atom  H    7
           Population inversion found on atom  H    8
           Population inversion found on atom  H    9
           Population inversion found on atom  O   10
           Population inversion found on atom  C   12
           Population inversion found on atom  C   13
           Population inversion found on atom  H   14
           Population inversion found on atom  H   15
           Population inversion found on atom  H   16
           Population inversion found on atom  C   18
           Population inversion found on atom  C   19
           Population inversion found on atom  C   20
           Population inversion found on atom  H   21
           Population inversion found on atom  H   22
           Population inversion found on atom  H   23
           Population inversion found on atom  H   24
           Population inversion found on atom  C   25
           Population inversion found on atom  H   26
           Population inversion found on atom  H   27
           Population inversion found on atom  H   28
           Population inversion found on atom  H   29
           Population inversion found on atom  H   30
           Population inversion found on atom  H   31


 Summary of Natural Population Analysis:                  
                                                          
                                       Natural Population 
                Natural  -----------------------------------------------
    Atom  No    Charge         Core      Valence    Rydberg      Total
 -----------------------------------------------------------------------
      C    1   -0.61818      1.99919     4.60652    0.01247     6.61818
      C    2    0.44992      1.99913     3.51616    0.03479     5.55008
      N    3   -0.73198      1.99931     5.71007    0.02259     7.73198
      H    4    0.39644      0.00000     0.59950    0.00407     0.60356
      C    5    0.44962      1.99904     3.51258    0.03876     5.55038
      C    6   -0.62440      1.99918     4.61136    0.01386     6.62440
      H    7    0.23040      0.00000     0.76805    0.00155     0.76960
      H    8    0.23553      0.00000     0.76300    0.00148     0.76447
      H    9    0.23259      0.00000     0.76562    0.00179     0.76741
      O   10   -0.36640      1.99974     6.34915    0.01752     8.36640
      O   11   -0.35906      1.99972     6.34101    0.01834     8.35906
      C   12    0.57709      1.99897     3.37823    0.04571     5.42291
      C   13   -0.63239      1.99916     4.62024    0.01299     6.63239
      H   14    0.23717      0.00000     0.76138    0.00145     0.76283
      H   15    0.23493      0.00000     0.76359    0.00148     0.76507
      H   16    0.23692      0.00000     0.76129    0.00179     0.76308
      O   17   -0.66799      1.99971     6.64542    0.02286     8.66799
      C   18   -0.11687      1.99889     4.09253    0.02545     6.11687
      C   19   -0.40947      1.99920     4.39246    0.01781     6.40947
      C   20   -0.42319      1.99914     4.40838    0.01567     6.42319
      H   21    0.22704      0.00000     0.77114    0.00182     0.77296
      H   22    0.22236      0.00000     0.77586    0.00178     0.77764
      H   23    0.23095      0.00000     0.76717    0.00189     0.76905
      H   24    0.23060      0.00000     0.76757    0.00183     0.76940
      C   25   -0.61217      1.99928     4.59851    0.01438     6.61217
      H   26    0.22824      0.00000     0.77023    0.00152     0.77176
      H   27    0.22857      0.00000     0.76971    0.00173     0.77143
      H   28    0.22798      0.00000     0.77047    0.00155     0.77202
      H   29    0.23042      0.00000     0.76814    0.00145     0.76958
      H   30    0.22436      0.00000     0.77375    0.00189     0.77564
      H   31    0.23100      0.00000     0.76759    0.00140     0.76900
 =======================================================================
   * Total *    0.00000     27.98965    79.66667    0.34367   108.00000

                                 Natural Population      
 --------------------------------------------------------
   Core                      27.98965 ( 99.9630% of  28)
   Valence                   79.66667 ( 99.5833% of  80)
   Natural Minimal Basis    107.65633 ( 99.6818% of 108)
   Natural Rydberg Basis      0.34367 (  0.3182% of 108)
 --------------------------------------------------------

    Atom  No          Natural Electron Configuration
 ----------------------------------------------------------------------------
      C    1      [core]2S( 1.08)2p( 3.53)4p( 0.01)
      C    2      [core]2S( 0.86)2p( 2.66)3p( 0.02)3d( 0.01)
      N    3      [core]2S( 1.31)2p( 4.40)4p( 0.01)
      H    4            1S( 0.60)
      C    5      [core]2S( 0.85)2p( 2.66)3p( 0.02)3d( 0.01)
      C    6      [core]2S( 1.08)2p( 3.53)3p( 0.01)
      H    7            1S( 0.77)
      H    8            1S( 0.76)
      H    9            1S( 0.77)
      O   10      [core]2S( 1.71)2p( 4.64)3p( 0.01)
      O   11      [core]2S( 1.70)2p( 4.64)3p( 0.01)
      C   12      [core]2S( 0.84)2p( 2.54)3p( 0.03)3d( 0.01)
[...]
   148. RY*(   3) H   7                  0.00013     1.90082   
   149. RY*(   4) H   7                  0.00010     1.82486   
   150. RY*(   5) H   7                  0.00004     1.79164   
   151. RY*(   6) H   7                  0.00002     1.39751   
   152. RY*(   1) H   8                  0.00071     0.98591   
   153. RY*(   2) H   8                  0.00019     1.75938   
   154. RY*(   3) H   8                  0.00014     1.87425   
   155. RY*(   4) H   8                  0.00010     1.78537   
   156. RY*(   5) H   8                  0.00005     0.69261   
   157. RY*(   6) H   8                  0.00003     2.61492   
   158. RY*(   1) H   9                  0.00110     0.90388   
   159. RY*(   2) H   9                  0.00016     1.91463   
   160. RY*(   3) H   9                  0.00011     1.86129   
   161. RY*(   4) H   9                  0.00009     1.92348   
   162. RY*(   5) H   9                  0.00003     2.61699   
   163. RY*(   6) H   9                  0.00003     0.43534   
   164. RY*(   1) O  10                  0.00279     0.70602   
   165. RY*(   2) O  10                  0.00242     1.04133   
   166. RY*(   3) O  10                  0.00114     1.29616   
   167. RY*(   4) O  10                  0.00084     1.03007   
   168. RY*(   5) O  10                  0.00057     1.38112   
   169. RY*(   6) O  10                  0.00038     2.61978   
   170. RY*(   7) O  10                  0.00017     2.16244   
   171. RY*(   8) O  10                  0.00015     1.55789   
   172. RY*(   9) O  10                  0.00013     2.06074   
   173. RY*(  10) O  10                  0.00004     2.96332   
   174. RY*(  11) O  10                  0.00004     2.31100   
   175. RY*(  12) O  10                  0.00001     2.63662   
   176. RY*(  13) O  10                  0.00001     4.58715   
   177. RY*(  14) O  10                  0.00001     2.97446   
   178. RY*(  15) O  10                  0.00001     4.51430   
   179. RY*(  16) O  10                  0.00000     4.85108   
   180. RY*(  17) O  10                  0.00000    49.47468   
   181. RY*(   1) O  11                  0.00285     0.66898   
   182. RY*(   2) O  11                  0.00260     1.01420   
   183. RY*(   3) O  11                  0.00106     0.88700   
   184. RY*(   4) O  11                  0.00101     1.31297   
   185. RY*(   5) O  11                  0.00056     1.46213   
   186. RY*(   6) O  11                  0.00040     2.48216   
   187. RY*(   7) O  11                  0.00022     1.65153   
   188. RY*(   8) O  11                  0.00015     2.49163   
   189. RY*(   9) O  11                  0.00011     2.71409   
   190. RY*(  10) O  11                  0.00006     2.22230   
   191. RY*(  11) O  11                  0.00005     2.45620   
   192. RY*(  12) O  11                  0.00001     4.05873   
   193. RY*(  13) O  11                  0.00001     4.82795   
   194. RY*(  14) O  11                  0.00001     2.94705   
   195. RY*(  15) O  11                  0.00001     2.71191   
   196. RY*(  16) O  11                  0.00000     4.84456   
   197. RY*(  17) O  11                  0.00000    49.70390   
   198. RY*(   1) C  12                  0.00967     0.90436   
   199. RY*(   2) C  12                  0.00863     0.90092   
   200. RY*(   3) C  12                  0.00426     1.63387   
   201. RY*(   4) C  12                  0.00406     1.21460   
   202. RY*(   5) C  12                  0.00246     2.04477   
   203. RY*(   6) C  12                  0.00241     1.06249   
   204. RY*(   7) C  12                  0.00153     1.52824   
   205. RY*(   8) C  12                  0.00141     1.62384   
   206. RY*(   9) C  12                  0.00056     1.87114   
   207. RY*(  10) C  12                  0.00022     2.24755   
   208. RY*(  11) C  12                  0.00009     2.94959   
   209. RY*(  12) C  12                  0.00007     1.34689   
   210. RY*(  13) C  12                  0.00006     3.36298   
   211. RY*(  14) C  12                  0.00002     3.53707   
   212. RY*(  15) C  12                  0.00002     2.11225   
   213. RY*(  16) C  12                  0.00002     1.66363   
   214. RY*(  17) C  12                  0.00001    19.93554   
   215. RY*(   1) C  13                  0.00335     0.67801   
   216. RY*(   2) C  13                  0.00303     0.69538   
   217. RY*(   3) C  13                  0.00096     1.01387   
   218. RY*(   4) C  13                  0.00027     1.48645   
   219. RY*(   5) C  13                  0.00016     1.39802   
   220. RY*(   6) C  13                  0.00012     1.63423   
   221. RY*(   7) C  13                  0.00010     1.13022   
   222. RY*(   8) C  13                  0.00007     2.26597   
   223. RY*(   9) C  13                  0.00004     1.35819   
   224. RY*(  10) C  13                  0.00005     1.24848   
   225. RY*(  11) C  13                  0.00001     3.10915   
   226. RY*(  12) C  13                  0.00002     2.99588   
   227. RY*(  13) C  13                  0.00001     1.55294   
   228. RY*(  14) C  13                  0.00001     1.63632   
   229. RY*(  15) C  13                  0.00000     2.92289   
   230. RY*(  16) C  13                  0.00000    21.53816   
   231. RY*(  17) C  13                  0.00001     1.77328   
   232. RY*(   1) H  14                  0.00067     0.96505   
   233. RY*(   2) H  14                  0.00019     1.75911   
   234. RY*(   3) H  14                  0.00015     1.79160   
   235. RY*(   4) H  14                  0.00012     1.85554   
   236. RY*(   5) H  14                  0.00005     1.50139   
   237. RY*(   6) H  14                  0.00002     1.80874   
   238. RY*(   1) H  15                  0.00072     0.84808   
   239. RY*(   2) H  15                  0.00017     1.99920   
   240. RY*(   3) H  15                  0.00014     1.84947   
   241. RY*(   4) H  15                  0.00011     1.82286   
   242. RY*(   5) H  15                  0.00004     1.52374   
   243. RY*(   6) H  15                  0.00002     1.59320   
   244. RY*(   1) H  16                  0.00106     0.98178   
   245. RY*(   2) H  16                  0.00019     1.74159   
   246. RY*(   3) H  16                  0.00011     1.74763   
   247. RY*(   4) H  16                  0.00010     1.79865   
   248. RY*(   5) H  16                  0.00004     0.78046   
   249. RY*(   6) H  16                  0.00002     2.63269   
   250. RY*(   1) O  17                  0.00675     0.60993   
   251. RY*(   2) O  17                  0.00538     0.73350   
   252. RY*(   3) O  17                  0.00215     1.12698   
   253. RY*(   4) O  17                  0.00132     1.18489   
   254. RY*(   5) O  17                  0.00063     1.07729   
   255. RY*(   6) O  17                  0.00037     1.44042   
   256. RY*(   7) O  17                  0.00026     1.18921   
   257. RY*(   8) O  17                  0.00017     2.82435   
   258. RY*(   9) O  17                  0.00011     3.45403   
   259. RY*(  10) O  17                  0.00007     3.21965   
   260. RY*(  11) O  17                  0.00002     4.20468   
   261. RY*(  12) O  17                  0.00002     3.23679   
   262. RY*(  13) O  17                  0.00001     2.95098   
   263. RY*(  14) O  17                  0.00002     3.18082   
   264. RY*(  15) O  17                  0.00000    49.45633   
   265. RY*(  16) O  17                  0.00000     5.00947   
   266. RY*(  17) O  17                  0.00001     4.84097   
   267. RY*(   1) C  18                  0.00363     1.07798   
   268. RY*(   2) C  18                  0.00306     0.89860   
   269. RY*(   3) C  18                  0.00281     0.81410   
   270. RY*(   4) C  18                  0.00225     0.69170   
   271. RY*(   5) C  18                  0.00189     1.12383   
   272. RY*(   6) C  18                  0.00118     0.91729   
   273. RY*(   7) C  18                  0.00053     1.57331   
   274. RY*(   8) C  18                  0.00045     1.45652   
   275. RY*(   9) C  18                  0.00041     1.95142   
   276. RY*(  10) C  18                  0.00036     1.72812   
   277. RY*(  11) C  18                  0.00031     1.90132   
   278. RY*(  12) C  18                  0.00026     2.23887   
   279. RY*(  13) C  18                  0.00020     1.51012   
   280. RY*(  14) C  18                  0.00009     2.47460   
   281. RY*(  15) C  18                  0.00007     2.73678   
   282. RY*(  16) C  18                  0.00005     2.37205   
   283. RY*(  17) C  18                  0.00001    23.31365   
   284. RY*(   1) C  19                  0.00487     0.88265   
   285. RY*(   2) C  19                  0.00434     0.70690   
   286. RY*(   3) C  19                  0.00161     1.06021   
   287. RY*(   4) C  19                  0.00062     1.26195   
   288. RY*(   5) C  19                  0.00045     1.63152   
   289. RY*(   6) C  19                  0.00019     1.03780   
   290. RY*(   7) C  19                  0.00012     2.53052   
   291. RY*(   8) C  19                  0.00009     1.58042   
   292. RY*(   9) C  19                  0.00008     2.08088   
   293. RY*(  10) C  19                  0.00005     1.86088   
   294. RY*(  11) C  19                  0.00005     1.81405   
   295. RY*(  12) C  19                  0.00004     1.53202   
   296. RY*(  13) C  19                  0.00004     2.60103   
   297. RY*(  14) C  19                  0.00002     1.52549   
   298. RY*(  15) C  19                  0.00000     3.14766   
   299. RY*(  16) C  19                  0.00000    21.53002   
   300. RY*(  17) C  19                  0.00001     2.77083   
   301. RY*(   1) C  20                  0.00389     0.88458   
   302. RY*(   2) C  20                  0.00322     0.79874   
   303. RY*(   3) C  20                  0.00197     0.84329   
   304. RY*(   4) C  20                  0.00059     1.29777   
   305. RY*(   5) C  20                  0.00028     1.87218   
   306. RY*(   6) C  20                  0.00020     1.75004   
   307. RY*(   7) C  20                  0.00018     1.95877   
   308. RY*(   8) C  20                  0.00011     1.90181   
   309. RY*(   9) C  20                  0.00012     2.36263   
   310. RY*(  10) C  20                  0.00009     2.11457   
   311. RY*(  11) C  20                  0.00004     2.69073   
   312. RY*(  12) C  20                  0.00004     1.84530   
   313. RY*(  13) C  20                  0.00003     0.78899   
   314. RY*(  14) C  20                  0.00001     1.46987   
   315. RY*(  15) C  20                  0.00001     1.31747   
   316. RY*(  16) C  20                  0.00000    22.06362   
   317. RY*(  17) C  20                  0.00001     3.29405   
   318. RY*(   1) H  21                  0.00090     0.88758   
   319. RY*(   2) H  21                  0.00023     1.94520   
   320. RY*(   3) H  21                  0.00021     1.88043   
   321. RY*(   4) H  21                  0.00009     2.09791   
   322. RY*(   5) H  21                  0.00006     0.76532   
   323. RY*(   6) H  21                  0.00003     2.39315   
   324. RY*(   1) H  22                  0.00090     1.01858   
   325. RY*(   2) H  22                  0.00023     1.82313   
   326. RY*(   3) H  22                  0.00019     1.85108   
   327. RY*(   4) H  22                  0.00007     2.07882   
   328. RY*(   5) H  22                  0.00008     0.79163   
   329. RY*(   6) H  22                  0.00003     2.38401   
   330. RY*(   1) H  23                  0.00097     1.08856   
   331. RY*(   2) H  23                  0.00028     1.76978   
   332. RY*(   3) H  23                  0.00020     1.82489   
   333. RY*(   4) H  23                  0.00010     2.25012   
   334. RY*(   5) H  23                  0.00005     2.03730   
   335. RY*(   6) H  23                  0.00002     1.06013   
   336. RY*(   1) H  24                  0.00095     1.11918   
   337. RY*(   2) H  24                  0.00025     1.72937   
   338. RY*(   3) H  24                  0.00018     1.81087   
   339. RY*(   4) H  24                  0.00010     2.23201   
   340. RY*(   5) H  24                  0.00004     2.10762   
   341. RY*(   6) H  24                  0.00002     1.01507   
   342. RY*(   1) C  25                  0.00454     0.68422   
   343. RY*(   2) C  25                  0.00338     0.70945   
   344. RY*(   3) C  25                  0.00091     0.91414   
   345. RY*(   4) C  25                  0.00022     1.40202   
   346. RY*(   5) C  25                  0.00016     0.90270   
   347. RY*(   6) C  25                  0.00012     1.32143   
   348. RY*(   7) C  25                  0.00010     1.85241   
   349. RY*(   8) C  25                  0.00005     2.36037   
   350. RY*(   9) C  25                  0.00004     1.24521   
   351. RY*(  10) C  25                  0.00002     1.69768   
   352. RY*(  11) C  25                  0.00002     2.58858   
   353. RY*(  12) C  25                  0.00000     2.48387   
   354. RY*(  13) C  25                  0.00000    21.91758   
   355. RY*(  14) C  25                  0.00000     3.08880   
   356. RY*(  15) C  25                  0.00001     1.90152   
   357. RY*(  16) C  25                  0.00001     2.10675   
   358. RY*(  17) C  25                  0.00001     1.89595   
   359. RY*(   1) H  26                  0.00076     0.95382   
   360. RY*(   2) H  26                  0.00021     1.98399   
   361. RY*(   3) H  26                  0.00013     1.87788   
   362. RY*(   4) H  26                  0.00009     1.79596   
   363. RY*(   5) H  26                  0.00003     2.63643   
   364. RY*(   6) H  26                  0.00003     0.50442   
   365. RY*(   1) H  27                  0.00095     1.15869   
   366. RY*(   2) H  27                  0.00020     1.52735   
   367. RY*(   3) H  27                  0.00013     1.88643   
   368. RY*(   4) H  27                  0.00011     1.83551   
   369. RY*(   5) H  27                  0.00005     2.08450   
   370. RY*(   6) H  27                  0.00002     1.28219   
   371. RY*(   1) H  28                  0.00079     0.92702   
   372. RY*(   2) H  28                  0.00020     2.08720   
   373. RY*(   3) H  28                  0.00013     1.87098   
   374. RY*(   4) H  28                  0.00009     1.80547   
   375. RY*(   5) H  28                  0.00003     2.60379   
   376. RY*(   6) H  28                  0.00003     0.46820   
   377. RY*(   1) H  29                  0.00066     0.85256   
   378. RY*(   2) H  29                  0.00023     1.77022   
   379. RY*(   3) H  29                  0.00013     1.79095   
   380. RY*(   4) H  29                  0.00011     1.90775   
   381. RY*(   5) H  29                  0.00003     2.60919   
   382. RY*(   6) H  29                  0.00003     0.66349   
   383. RY*(   1) H  30                  0.00111     0.94567   
   384. RY*(   2) H  30                  0.00022     1.87022   
   385. RY*(   3) H  30                  0.00013     1.79389   
   386. RY*(   4) H  30                  0.00011     2.00629   
   387. RY*(   5) H  30                  0.00004     0.78611   
   388. RY*(   6) H  30                  0.00002     2.18258   
   389. RY*(   1) H  31                  0.00064     0.80319   
   390. RY*(   2) H  31                  0.00021     1.72703   
   391. RY*(   3) H  31                  0.00011     1.85223   
   392. RY*(   4) H  31                  0.00009     1.81133   
   393. RY*(   5) H  31                  0.00003     2.60139   
   394. RY*(   6) H  31                  0.00003     0.81491   
   395. BD*(   1) C   1 - C   2          0.02011     0.42773   
   396. BD*(   1) C   1 - H  29          0.00457     0.43007   
   397. BD*(   1) C   1 - H  30          0.00597     0.42650   
   398. BD*(   1) C   1 - H  31          0.00457     0.42961   
   399. BD*(   1) C   2 - N   3          0.05226     0.38758   
   400. BD*(   1) C   2 - O  17          0.09734     0.27760   
   401. BD*(   1) C   2 - C  20          0.03859     0.40989   
   402. BD*(   1) N   3 - H   4          0.01873     0.44135   
   403. BD*(   1) N   3 - C   5          0.05458     0.38055   
   404. BD*(   1) C   5 - C   6          0.02952     0.41621   
   405. BD*(   1) C   5 - O  10          0.09186     0.26304   
   406. BD*(   1) C   5 - C  18          0.05431     0.37262   
   407. BD*(   1) C   6 - H   7          0.00587     0.43446   
   408. BD*(   1) C   6 - H   8          0.00538     0.42923   
   409. BD*(   1) C   6 - H   9          0.00537     0.42741   
   410. BD*(   1) O  10 - O  11          0.05296     0.08852   
   411. BD*(   1) O  11 - C  12          0.08986     0.28004   
   412. BD*(   1) C  12 - C  13          0.02707     0.41482   
   413. BD*(   1) C  12 - O  17          0.07468     0.31795   
   414. BD*(   1) C  12 - C  18          0.06145     0.36529   
   415. BD*(   1) C  13 - H  14          0.00513     0.42669   
   416. BD*(   1) C  13 - H  15          0.00521     0.43249   
   417. BD*(   1) C  13 - H  16          0.00541     0.42687   
   418. BD*(   1) C  18 - C  19          0.02596     0.41168   
   419. BD*(   1) C  18 - C  25          0.02053     0.41620   
   420. BD*(   1) C  19 - C  20          0.01108     0.41382   
   421. BD*(   1) C  19 - H  23          0.01244     0.43946   
   422. BD*(   1) C  19 - H  24          0.01247     0.43797   
   423. BD*(   1) C  20 - H  21          0.01227     0.44210   
   424. BD*(   1) C  20 - H  22          0.01272     0.43990   
   425. BD*(   1) C  25 - H  26          0.00599     0.43703   
   426. BD*(   1) C  25 - H  27          0.00574     0.43889   
   427. BD*(   1) C  25 - H  28          0.00658     0.43613   
       -------------------------------
              Total Lewis  106.82236  ( 98.9096%)
        Valence non-Lewis    0.93658  (  0.8672%)
        Rydberg non-Lewis    0.24106  (  0.2232%)
       -------------------------------
            Total unit  1  108.00000  (100.0000%)
           Charge unit  1    0.00000
 1\1\GINC-ORTUS\SP\RPBE1PBE\6-311++G(d,p)\C10H17N1O3\XRAY\23-Sep-2021\0
 \\# rpbe1pbe 6-311++g(d,p) scrf=(smd,solvent=methanol) empiricaldisper
 sion=gd3bj pop=nboread\\Conformation\\0,1\C,0,-3.04581,-0.173616,-0.52
 6277\C,0,-1.636884,-0.123817,0.003495\N,0,-0.892582,-1.295456,-0.39129
 1\H,0,-1.133368,-1.601983,-1.328778\C,0,0.54347,-1.135756,-0.280498\C,
 0,1.223295,-2.447578,0.029671\H,0,2.309769,-2.353082,0.014224\H,0,0.90
 3105,-2.790341,1.016457\H,0,0.921862,-3.199352,-0.705545\O,0,1.109021,
 -0.699732,-1.537525\O,0,0.995045,0.74887,-1.57455\C,0,0.362693,1.14270
 6,-0.360624\C,0,0.756225,2.574245,-0.10769\H,0,0.33856,2.896179,0.8491
 65\H,0,1.83977,2.691804,-0.087394\H,0,0.342882,3.207638,-0.896897\O,0,
 -1.036649,1.087148,-0.53747\C,0,0.816758,0.064183,0.643206\C,0,-0.0630
 78,0.037572,1.890775\C,0,-1.548669,0.003456,1.515893\H,0,-2.062708,-0.
 841381,1.979838\H,0,-2.060885,0.920191,1.818662\H,0,0.173097,0.916134,
 2.497568\H,0,0.218994,-0.837616,2.483286\C,0,2.283595,0.19736,1.010677
 \H,0,2.448511,1.121781,1.569933\H,0,2.931889,0.204803,0.131447\H,0,2.5
 83971,-0.63382,1.654156\H,0,-3.588276,0.727754,-0.232308\H,0,-3.039873
 ,-0.239658,-1.618395\H,0,-3.568125,-1.04368,-0.121785\\Version=ES64L-G
 16RevA.03\State=1-A\HF=-671.1326678\RMSD=2.355e-09\Dipole=-0.2590406,-
 0.3597063,1.9419482\Quadrupole=1.6064248,1.9701917,-3.5766165,1.400848
 4,4.048662,2.7262315\PG=C01 [X(C10H17N1O3)]\\@


 BULLDOZER: SOMEONE WHO SLEEPS THROUGH SPEECHES.
 Job cpu time:       0 days  1 hours  6 minutes 34.6 seconds.
 Elapsed time:       0 days  0 hours  1 minutes 41.0 seconds.
 File lengths (MBytes):  RWF=    160 Int=      0 D2E=      0 Chk=     12 Scr=      1
 Normal termination of Gaussian 16 at Thu Sep 23 17:24:19 2021.
